BN.data (written by ASE) 

4096 	 atoms 
2  atom types
0.0      160.79359436039999  xlo xhi
0.0      69.625668740899997  ylo yhi
0.0                      20  zlo zhi
    -40.198398590099998                       0                       0  xy xz yz


Atoms 

     1   1      1.2562125179999999              0.72526013                       0
     2   1  1.2561999999999999e-05      2.9010622779999999                       0
     3   1     -1.2561873939999999      5.0768644260000002                       0
     4   1             -2.51238735      7.2526665750000001                       0
     5   1     -3.7685873060000001      9.4284687229999999                       0
     6   1     -5.0247872620000003      11.604270871000001                       0
     7   1     -6.2809872179999999            13.780073019                       0
     8   1     -7.5371871739999996            15.955875167                       0
     9   1     -8.7933871299999993      18.131677315000001                       0
    10   1     -10.049587086000001            20.307479463                       0
    11   1           -11.305787041      22.483281611999999                       0
    12   1           -12.561986997      24.659083760000001                       0
    13   1           -13.818186953            26.834885908                       0
    14   1     -15.074386908999999      29.010688055999999                       0
    15   1     -16.330586865000001      31.186490203999998                       0
    16   1           -17.586786821      33.362292351999997                       0
    17   1           -18.842986777      35.538094501000003                       0
    18   1           -20.099186733      37.713896648999999                       0
    19   1     -21.355386688999999      39.889698797000001                       0
    20   1     -22.611586644999999      42.065500944999997                       0
    21   1     -23.867786600999999      44.241303092999999                       0
    22   1     -25.123986556999998      46.417105241000002                       0
    23   1     -26.380186513000002      48.592907388999997                       0
    24   1     -27.636386469000001      50.768709538000003                       0
    25   1     -28.892586425000001      52.944511685999998                       0
    26   1     -30.148786381000001      55.120313834000001                       0
    27   1           -31.404986337      57.296115982000003                       0
    28   1     -32.661186291999996      59.471918129999999                       0
    29   1           -33.917386248      61.647720278000001                       0
    30   1     -35.173586204000003            63.823522427                       0
    31   1     -36.429786159999999      65.999324575000003                       0
    32   1     -37.685986116000002      68.175126723000005                       0
    33   1      3.7686124300000001              0.72526013                       0
    34   1             2.512412474      2.9010622779999999                       0
    35   1      1.2562125179999999      5.0768644260000002                       0
    36   1  1.2561999999999999e-05      7.2526665750000001                       0
    37   1     -1.2561873939999999      9.4284687229999999                       0
    38   1             -2.51238735      11.604270871000001                       0
    39   1     -3.7685873060000001            13.780073019                       0
    40   1     -5.0247872620000003            15.955875167                       0
    41   1     -6.2809872179999999      18.131677315000001                       0
    42   1     -7.5371871739999996            20.307479463                       0
    43   1     -8.7933871299999993      22.483281611999999                       0
    44   1     -10.049587086000001      24.659083760000001                       0
    45   1           -11.305787041            26.834885908                       0
    46   1           -12.561986997      29.010688055999999                       0
    47   1           -13.818186953      31.186490203999998                       0
    48   1     -15.074386908999999      33.362292351999997                       0
    49   1     -16.330586865000001      35.538094501000003                       0
    50   1           -17.586786821      37.713896648999999                       0
    51   1           -18.842986777      39.889698797000001                       0
    52   1           -20.099186733      42.065500944999997                       0
    53   1     -21.355386688999999      44.241303092999999                       0
    54   1     -22.611586644999999      46.417105241000002                       0
    55   1     -23.867786600999999      48.592907388999997                       0
    56   1     -25.123986556999998      50.768709538000003                       0
    57   1     -26.380186513000002      52.944511685999998                       0
    58   1     -27.636386469000001      55.120313834000001                       0
    59   1     -28.892586425000001      57.296115982000003                       0
    60   1     -30.148786381000001      59.471918129999999                       0
    61   1           -31.404986337      61.647720278000001                       0
    62   1     -32.661186291999996            63.823522427                       0
    63   1           -33.917386248      65.999324575000003                       0
    64   1     -35.173586204000003      68.175126723000005                       0
    65   1      6.2810123420000004              0.72526013                       0
    66   1      5.0248123859999998      2.9010622779999999                       0
    67   1      3.7686124300000001      5.0768644260000002                       0
    68   1             2.512412474      7.2526665750000001                       0
    69   1      1.2562125179999999      9.4284687229999999                       0
    70   1  1.2561999999999999e-05      11.604270871000001                       0
    71   1     -1.2561873939999999            13.780073019                       0
    72   1             -2.51238735            15.955875167                       0
    73   1     -3.7685873060000001      18.131677315000001                       0
    74   1     -5.0247872620000003            20.307479463                       0
    75   1     -6.2809872179999999      22.483281611999999                       0
    76   1     -7.5371871739999996      24.659083760000001                       0
    77   1     -8.7933871299999993            26.834885908                       0
    78   1     -10.049587086000001      29.010688055999999                       0
    79   1           -11.305787041      31.186490203999998                       0
    80   1           -12.561986997      33.362292351999997                       0
    81   1           -13.818186953      35.538094501000003                       0
    82   1     -15.074386908999999      37.713896648999999                       0
    83   1     -16.330586865000001      39.889698797000001                       0
    84   1           -17.586786821      42.065500944999997                       0
    85   1           -18.842986777      44.241303092999999                       0
    86   1           -20.099186733      46.417105241000002                       0
    87   1     -21.355386688999999      48.592907388999997                       0
    88   1     -22.611586644999999      50.768709538000003                       0
    89   1     -23.867786600999999      52.944511685999998                       0
    90   1     -25.123986556999998      55.120313834000001                       0
    91   1     -26.380186513000002      57.296115982000003                       0
    92   1     -27.636386469000001      59.471918129999999                       0
    93   1     -28.892586425000001      61.647720278000001                       0
    94   1     -30.148786381000001            63.823522427                       0
    95   1           -31.404986337      65.999324575000003                       0
    96   1     -32.661186291999996      68.175126723000005                       0
    97   1      8.7934122539999997              0.72526013                       0
    98   1             7.537212298      2.9010622779999999                       0
    99   1      6.2810123420000004      5.0768644260000002                       0
   100   1      5.0248123859999998      7.2526665750000001                       0
   101   1      3.7686124300000001      9.4284687229999999                       0
   102   1             2.512412474      11.604270871000001                       0
   103   1      1.2562125179999999            13.780073019                       0
   104   1  1.2561999999999999e-05            15.955875167                       0
   105   1     -1.2561873939999999      18.131677315000001                       0
   106   1             -2.51238735            20.307479463                       0
   107   1     -3.7685873060000001      22.483281611999999                       0
   108   1     -5.0247872620000003      24.659083760000001                       0
   109   1     -6.2809872179999999            26.834885908                       0
   110   1     -7.5371871739999996      29.010688055999999                       0
   111   1     -8.7933871299999993      31.186490203999998                       0
   112   1     -10.049587086000001      33.362292351999997                       0
   113   1           -11.305787041      35.538094501000003                       0
   114   1           -12.561986997      37.713896648999999                       0
   115   1           -13.818186953      39.889698797000001                       0
   116   1     -15.074386908999999      42.065500944999997                       0
   117   1     -16.330586865000001      44.241303092999999                       0
   118   1           -17.586786821      46.417105241000002                       0
   119   1           -18.842986777      48.592907388999997                       0
   120   1           -20.099186733      50.768709538000003                       0
   121   1     -21.355386688999999      52.944511685999998                       0
   122   1     -22.611586644999999      55.120313834000001                       0
   123   1     -23.867786600999999      57.296115982000003                       0
   124   1     -25.123986556999998      59.471918129999999                       0
   125   1     -26.380186513000002      61.647720278000001                       0
   126   1     -27.636386469000001            63.823522427                       0
   127   1     -28.892586425000001      65.999324575000003                       0
   128   1     -30.148786381000001      68.175126723000005                       0
   129   1      11.305812165000001              0.72526013                       0
   130   1      10.049612209999999      2.9010622779999999                       0
   131   1      8.7934122539999997      5.0768644260000002                       0
   132   1             7.537212298      7.2526665750000001                       0
   133   1      6.2810123420000004      9.4284687229999999                       0
   134   1      5.0248123859999998      11.604270871000001                       0
   135   1      3.7686124300000001            13.780073019                       0
   136   1             2.512412474            15.955875167                       0
   137   1      1.2562125179999999      18.131677315000001                       0
   138   1  1.2561999999999999e-05            20.307479463                       0
   139   1     -1.2561873939999999      22.483281611999999                       0
   140   1             -2.51238735      24.659083760000001                       0
   141   1     -3.7685873060000001            26.834885908                       0
   142   1     -5.0247872620000003      29.010688055999999                       0
   143   1     -6.2809872179999999      31.186490203999998                       0
   144   1     -7.5371871739999996      33.362292351999997                       0
   145   1     -8.7933871299999993      35.538094501000003                       0
   146   1     -10.049587086000001      37.713896648999999                       0
   147   1           -11.305787041      39.889698797000001                       0
   148   1           -12.561986997      42.065500944999997                       0
   149   1           -13.818186953      44.241303092999999                       0
   150   1     -15.074386908999999      46.417105241000002                       0
   151   1     -16.330586865000001      48.592907388999997                       0
   152   1           -17.586786821      50.768709538000003                       0
   153   1           -18.842986777      52.944511685999998                       0
   154   1           -20.099186733      55.120313834000001                       0
   155   1     -21.355386688999999      57.296115982000003                       0
   156   1     -22.611586644999999      59.471918129999999                       0
   157   1     -23.867786600999999      61.647720278000001                       0
   158   1     -25.123986556999998            63.823522427                       0
   159   1     -26.380186513000002      65.999324575000003                       0
   160   1     -27.636386469000001      68.175126723000005                       0
   161   1            13.818212077              0.72526013                       0
   162   1            12.562012121      2.9010622779999999                       0
   163   1      11.305812165000001      5.0768644260000002                       0
   164   1      10.049612209999999      7.2526665750000001                       0
   165   1      8.7934122539999997      9.4284687229999999                       0
   166   1             7.537212298      11.604270871000001                       0
   167   1      6.2810123420000004            13.780073019                       0
   168   1      5.0248123859999998            15.955875167                       0
   169   1      3.7686124300000001      18.131677315000001                       0
   170   1             2.512412474            20.307479463                       0
   171   1      1.2562125179999999      22.483281611999999                       0
   172   1  1.2561999999999999e-05      24.659083760000001                       0
   173   1     -1.2561873939999999            26.834885908                       0
   174   1             -2.51238735      29.010688055999999                       0
   175   1     -3.7685873060000001      31.186490203999998                       0
   176   1     -5.0247872620000003      33.362292351999997                       0
   177   1     -6.2809872179999999      35.538094501000003                       0
   178   1     -7.5371871739999996      37.713896648999999                       0
   179   1     -8.7933871299999993      39.889698797000001                       0
   180   1     -10.049587086000001      42.065500944999997                       0
   181   1           -11.305787041      44.241303092999999                       0
   182   1           -12.561986997      46.417105241000002                       0
   183   1           -13.818186953      48.592907388999997                       0
   184   1     -15.074386908999999      50.768709538000003                       0
   185   1     -16.330586865000001      52.944511685999998                       0
   186   1           -17.586786821      55.120313834000001                       0
   187   1           -18.842986777      57.296115982000003                       0
   188   1           -20.099186733      59.471918129999999                       0
   189   1     -21.355386688999999      61.647720278000001                       0
   190   1     -22.611586644999999            63.823522427                       0
   191   1     -23.867786600999999      65.999324575000003                       0
   192   1     -25.123986556999998      68.175126723000005                       0
   193   1      16.330611989000001              0.72526013                       0
   194   1            15.074412033      2.9010622779999999                       0
   195   1            13.818212077      5.0768644260000002                       0
   196   1            12.562012121      7.2526665750000001                       0
   197   1      11.305812165000001      9.4284687229999999                       0
   198   1      10.049612209999999      11.604270871000001                       0
   199   1      8.7934122539999997            13.780073019                       0
   200   1             7.537212298            15.955875167                       0
   201   1      6.2810123420000004      18.131677315000001                       0
   202   1      5.0248123859999998            20.307479463                       0
   203   1      3.7686124300000001      22.483281611999999                       0
   204   1             2.512412474      24.659083760000001                       0
   205   1      1.2562125179999999            26.834885908                       0
   206   1  1.2561999999999999e-05      29.010688055999999                       0
   207   1     -1.2561873939999999      31.186490203999998                       0
   208   1             -2.51238735      33.362292351999997                       0
   209   1     -3.7685873060000001      35.538094501000003                       0
   210   1     -5.0247872620000003      37.713896648999999                       0
   211   1     -6.2809872179999999      39.889698797000001                       0
   212   1     -7.5371871739999996      42.065500944999997                       0
   213   1     -8.7933871299999993      44.241303092999999                       0
   214   1     -10.049587086000001      46.417105241000002                       0
   215   1           -11.305787041      48.592907388999997                       0
   216   1           -12.561986997      50.768709538000003                       0
   217   1           -13.818186953      52.944511685999998                       0
   218   1     -15.074386908999999      55.120313834000001                       0
   219   1     -16.330586865000001      57.296115982000003                       0
   220   1           -17.586786821      59.471918129999999                       0
   221   1           -18.842986777      61.647720278000001                       0
   222   1           -20.099186733            63.823522427                       0
   223   1     -21.355386688999999      65.999324575000003                       0
   224   1     -22.611586644999999      68.175126723000005                       0
   225   1      18.843011901000001              0.72526013                       0
   226   1      17.586811945000001      2.9010622779999999                       0
   227   1      16.330611989000001      5.0768644260000002                       0
   228   1            15.074412033      7.2526665750000001                       0
   229   1            13.818212077      9.4284687229999999                       0
   230   1            12.562012121      11.604270871000001                       0
   231   1      11.305812165000001            13.780073019                       0
   232   1      10.049612209999999            15.955875167                       0
   233   1      8.7934122539999997      18.131677315000001                       0
   234   1             7.537212298            20.307479463                       0
   235   1      6.2810123420000004      22.483281611999999                       0
   236   1      5.0248123859999998      24.659083760000001                       0
   237   1      3.7686124300000001            26.834885908                       0
   238   1             2.512412474      29.010688055999999                       0
   239   1      1.2562125179999999      31.186490203999998                       0
   240   1  1.2561999999999999e-05      33.362292351999997                       0
   241   1     -1.2561873939999999      35.538094501000003                       0
   242   1             -2.51238735      37.713896648999999                       0
   243   1     -3.7685873060000001      39.889698797000001                       0
   244   1     -5.0247872620000003      42.065500944999997                       0
   245   1     -6.2809872179999999      44.241303092999999                       0
   246   1     -7.5371871739999996      46.417105241000002                       0
   247   1     -8.7933871299999993      48.592907388999997                       0
   248   1     -10.049587086000001      50.768709538000003                       0
   249   1           -11.305787041      52.944511685999998                       0
   250   1           -12.561986997      55.120313834000001                       0
   251   1           -13.818186953      57.296115982000003                       0
   252   1     -15.074386908999999      59.471918129999999                       0
   253   1     -16.330586865000001      61.647720278000001                       0
   254   1           -17.586786821            63.823522427                       0
   255   1           -18.842986777      65.999324575000003                       0
   256   1           -20.099186733      68.175126723000005                       0
   257   1            21.355411813              0.72526013                       0
   258   1            20.099211857      2.9010622779999999                       0
   259   1      18.843011901000001      5.0768644260000002                       0
   260   1      17.586811945000001      7.2526665750000001                       0
   261   1      16.330611989000001      9.4284687229999999                       0
   262   1            15.074412033      11.604270871000001                       0
   263   1            13.818212077            13.780073019                       0
   264   1            12.562012121            15.955875167                       0
   265   1      11.305812165000001      18.131677315000001                       0
   266   1      10.049612209999999            20.307479463                       0
   267   1      8.7934122539999997      22.483281611999999                       0
   268   1             7.537212298      24.659083760000001                       0
   269   1      6.2810123420000004            26.834885908                       0
   270   1      5.0248123859999998      29.010688055999999                       0
   271   1      3.7686124300000001      31.186490203999998                       0
   272   1             2.512412474      33.362292351999997                       0
   273   1      1.2562125179999999      35.538094501000003                       0
   274   1  1.2561999999999999e-05      37.713896648999999                       0
   275   1     -1.2561873939999999      39.889698797000001                       0
   276   1             -2.51238735      42.065500944999997                       0
   277   1     -3.7685873060000001      44.241303092999999                       0
   278   1     -5.0247872620000003      46.417105241000002                       0
   279   1     -6.2809872179999999      48.592907388999997                       0
   280   1     -7.5371871739999996      50.768709538000003                       0
   281   1     -8.7933871299999993      52.944511685999998                       0
   282   1     -10.049587086000001      55.120313834000001                       0
   283   1           -11.305787041      57.296115982000003                       0
   284   1           -12.561986997      59.471918129999999                       0
   285   1           -13.818186953      61.647720278000001                       0
   286   1     -15.074386908999999            63.823522427                       0
   287   1     -16.330586865000001      65.999324575000003                       0
   288   1           -17.586786821      68.175126723000005                       0
   289   1      23.867811724999999              0.72526013                       0
   290   1            22.611611769      2.9010622779999999                       0
   291   1            21.355411813      5.0768644260000002                       0
   292   1            20.099211857      7.2526665750000001                       0
   293   1      18.843011901000001      9.4284687229999999                       0
   294   1      17.586811945000001      11.604270871000001                       0
   295   1      16.330611989000001            13.780073019                       0
   296   1            15.074412033            15.955875167                       0
   297   1            13.818212077      18.131677315000001                       0
   298   1            12.562012121            20.307479463                       0
   299   1      11.305812165000001      22.483281611999999                       0
   300   1      10.049612209999999      24.659083760000001                       0
   301   1      8.7934122539999997            26.834885908                       0
   302   1             7.537212298      29.010688055999999                       0
   303   1      6.2810123420000004      31.186490203999998                       0
   304   1      5.0248123859999998      33.362292351999997                       0
   305   1      3.7686124300000001      35.538094501000003                       0
   306   1             2.512412474      37.713896648999999                       0
   307   1      1.2562125179999999      39.889698797000001                       0
   308   1  1.2561999999999999e-05      42.065500944999997                       0
   309   1     -1.2561873939999999      44.241303092999999                       0
   310   1             -2.51238735      46.417105241000002                       0
   311   1     -3.7685873060000001      48.592907388999997                       0
   312   1     -5.0247872620000003      50.768709538000003                       0
   313   1     -6.2809872179999999      52.944511685999998                       0
   314   1     -7.5371871739999996      55.120313834000001                       0
   315   1     -8.7933871299999993      57.296115982000003                       0
   316   1     -10.049587086000001      59.471918129999999                       0
   317   1           -11.305787041      61.647720278000001                       0
   318   1           -12.561986997            63.823522427                       0
   319   1           -13.818186953      65.999324575000003                       0
   320   1     -15.074386908999999      68.175126723000005                       0
   321   1      26.380211636999999              0.72526013                       0
   322   1      25.124011680999999      2.9010622779999999                       0
   323   1      23.867811724999999      5.0768644260000002                       0
   324   1            22.611611769      7.2526665750000001                       0
   325   1            21.355411813      9.4284687229999999                       0
   326   1            20.099211857      11.604270871000001                       0
   327   1      18.843011901000001            13.780073019                       0
   328   1      17.586811945000001            15.955875167                       0
   329   1      16.330611989000001      18.131677315000001                       0
   330   1            15.074412033            20.307479463                       0
   331   1            13.818212077      22.483281611999999                       0
   332   1            12.562012121      24.659083760000001                       0
   333   1      11.305812165000001            26.834885908                       0
   334   1      10.049612209999999      29.010688055999999                       0
   335   1      8.7934122539999997      31.186490203999998                       0
   336   1             7.537212298      33.362292351999997                       0
   337   1      6.2810123420000004      35.538094501000003                       0
   338   1      5.0248123859999998      37.713896648999999                       0
   339   1      3.7686124300000001      39.889698797000001                       0
   340   1             2.512412474      42.065500944999997                       0
   341   1      1.2562125179999999      44.241303092999999                       0
   342   1  1.2561999999999999e-05      46.417105241000002                       0
   343   1     -1.2561873939999999      48.592907388999997                       0
   344   1             -2.51238735      50.768709538000003                       0
   345   1     -3.7685873060000001      52.944511685999998                       0
   346   1     -5.0247872620000003      55.120313834000001                       0
   347   1     -6.2809872179999999      57.296115982000003                       0
   348   1     -7.5371871739999996      59.471918129999999                       0
   349   1     -8.7933871299999993      61.647720278000001                       0
   350   1     -10.049587086000001            63.823522427                       0
   351   1           -11.305787041      65.999324575000003                       0
   352   1           -12.561986997      68.175126723000005                       0
   353   1      28.892611549000002              0.72526013                       0
   354   1      27.636411592999998      2.9010622779999999                       0
   355   1      26.380211636999999      5.0768644260000002                       0
   356   1      25.124011680999999      7.2526665750000001                       0
   357   1      23.867811724999999      9.4284687229999999                       0
   358   1            22.611611769      11.604270871000001                       0