LAMMPS (29 Aug 2024 - Update 1)
OMP_NUM_THREADS environment is not set. Defaulting to 1 thread. (src/src/comm.cpp:98)
  using 1 OpenMP thread(s) per MPI task
Loaded 1 plugins from /data/home/wzu23cj/anaconda3/envs/deepmdkit_tf_lm/lib/python3.10/site-packages/deepmd/lib
# graphane : Calculating the stress vs strain at a fixed temperature. Refer: https://www.linkedin.com/pulse/how-perform-uniaxial-tensile-tests-graphene-sample-lammps-dewapriya/ for the whole example

##---------------INITIALIZATION-------------------------------

units           metal
dimension	3
boundary        p p f
atom_style      atomic
newton		on

##---------------ATOM DEFINITION------------------------------

#neighbor        2.0 bin
#neigh_modify    every 10 delay 0 check no

read_data	BN4096.data
Reading data file ...
  triclinic box = (0 0 0) to (160.79359 69.625669 20) with tilt (-40.198399 0 0)
WARNING: Triclinic box skew is large. LAMMPS will run inefficiently. (src/src/domain.cpp:221)
  1 by 1 by 1 MPI processor grid
  reading atoms ...
  4096 atoms
  read_data CPU = 0.062 seconds
mass 1 10.811  # B
mass 2 14.007  # N

pair_style	deepmd BNcompress.pb
Summary of lammps deepmd module ...
  >>> Info of deepmd-kit:
  installed to:       /tmp/tmptbpe6tn3/wheel/platlib
  source:             v3.0.3
  source branch:      HEAD
  source commit:      e7eb16e1
  source commit at:   2025-05-23 23:43:28 +0800
  support model ver.: 1.1 
  build variant:      cuda
  build with tf inc:  /tmp/build-env-85oudwf8/lib/python3.11/site-packages/tensorflow/include/;/tmp/build-env-85oudwf8/lib/python3.11/site-packages/tensorflow/include/
  build with tf lib:  /tmp/build-env-85oudwf8/lib/python3.11/site-packages/tensorflow/libtensorflow_cc.so.2
  set tf intra_op_parallelism_threads: 0
  set tf inter_op_parallelism_threads: 0
  >>> Info of lammps module:
  use deepmd-kit at:  /tmp/tmptbpe6tn3/wheel/platlib
  source:             v3.0.3
  source branch:      HEAD
  source commit:      e7eb16e1
  source commit at:   2025-05-23 23:43:28 +0800
  build with inc:     /tmp/build-env-85oudwf8/lib/python3.11/site-packages/torch/include;/tmp/build-env-85oudwf8/lib/python3.11/site-packages/torch/include/torch/csrc/api/include
  build with lib:     /tmp/build-env-85oudwf8/lib/python3.11/site-packages/tensorflow;/tmp/build-env-85oudwf8/lib/python3.11/site-packages/torch/lib
pair_coeff  	* *

##---------------SETTINGS-------------------------------------

timestep        0.001
variable        ts equal 0.001

#compute         1 all stress/atom NULL
compute 1 all centroid/stress/atom NULL
compute         2 all reduce sum c_1[1] c_1[2]

variable        Lx equal lx
variable        Ly equal ly
variable        Lz equal lz
variable        Vol equal vol

variable        thickn equal 6.4

fix		1 all npt temp 300 300 0.05 x 0 0 0.5 y 0 0 0.5

#-mmmmmmmmmmmmm-- fix temp to 300 with temperature damping of 0.05; x and y are external stress tensor component: starts from 0 to 0.5 bars

thermo		2000

##---------------RELAXATION------------------------------------

run		50000

CITE-CITE-CITE-CITE-CITE-CITE-CITE-CITE-CITE-CITE-CITE-CITE-CITE

Your simulation uses code contributions which should be cited:

- Type Label Framework: https://doi.org/10.1021/acs.jpcb.3c08419

@Article{Gissinger24,
 author = {Jacob R. Gissinger, Ilia Nikiforov, Yaser Afshar, Brendon Waters, Moon-ki Choi, Daniel S. Karls, Alexander Stukowski, Wonpil Im, Hendrik Heinz, Axel Kohlmeyer, and Ellad B. Tadmor},
 title = {Type Label Framework for Bonded Force Fields in LAMMPS},
 journal = {J. Phys. Chem. B},
 year =    2024,
 volume =  128,
 number =  13,
 pages =   {3282–-3297}
}

- USER-DEEPMD package:

@article{Wang_ComputPhysCommun_2018_v228_p178,
  author = {Wang, Han and Zhang, Linfeng and Han, Jiequn and E, Weinan},
  doi = {10.1016/j.cpc.2018.03.016},
  url = {https://doi.org/10.1016/j.cpc.2018.03.016},
  year = 2018,
  month = {jul},
  publisher = {Elsevier {BV}},
  volume = 228,
  journal = {Comput. Phys. Commun.},
  title = {{DeePMD-kit: A deep learning package for many-body potential energy representation and molecular dynamics}},
  pages = {178--184}
}
@article{Zeng_JChemPhys_2023_v159_p054801,
  title  = {{DeePMD-kit v2: A software package for deep potential models}},
  author =   {Jinzhe Zeng and Duo Zhang and Denghui Lu and Pinghui Mo and Zeyu Li
         and Yixiao Chen and Mari{\'a}n Rynik and Li'ang Huang and Ziyao Li and 
         Shaochen Shi and Yingze Wang and Haotian Ye and Ping Tuo and Jiabin
         Yang and Ye Ding and Yifan Li and Davide Tisi and Qiyu Zeng and Han 
         Bao and Yu Xia and Jiameng Huang and Koki Muraoka and Yibo Wang and 
         Junhan Chang and Fengbo Yuan and Sigbj{\o}rn L{\o}land Bore and Chun
         Cai and Yinnian Lin and Bo Wang and Jiayan Xu and Jia-Xin Zhu and 
         Chenxing Luo and Yuzhi Zhang and Rhys E A Goodall and Wenshuo Liang
         and Anurag Kumar Singh and Sikai Yao and Jingchao Zhang and Renata
         Wentzcovitch and Jiequn Han and Jie Liu and Weile Jia and Darrin M
         York and Weinan E and Roberto Car and Linfeng Zhang and Han Wang},
  journal =  {J. Chem. Phys.},
  volume =   159,
  issue =    5,  
  year =    2023,
  pages  =   054801,
  doi =      {10.1063/5.0155600},
}
@Article{Zeng_arXiv_2025_p2502.19161,
  annote       = {general purpose},
    author =   {Jinzhe Zeng and Duo Zhang and Anyang Peng and Xiangyu Zhang and Sensen
             He and Yan Wang and Xinzijian Liu and Hangrui Bi and Yifan Li and Chun
             Cai and Chengqian Zhang and Yiming Du and Jia-Xin Zhu and Pinghui Mo
             and Zhengtao Huang and Qiyu Zeng and Shaochen Shi and Xuejian Qin and
             Zhaoxi Yu and Chenxing Luo and Ye Ding and Yun-Pei Liu and Ruosong Shi
             and Zhenyu Wang and Sigbj{\o}rn L{\o}land Bore and Junhan Chang and
             Zhe Deng and Zhaohan Ding and Siyuan Han and Wanrun Jiang and Guolin
             Ke and Zhaoqing Liu and Denghui Lu and Koki Muraoka and Hananeh Oliaei
             and Anurag Kumar Singh and Haohui Que and Weihong Xu and Zhangmancang
             Xu and Yong-Bin Zhuang and Jiayu Dai and Timothy J. Giese and Weile
             Jia and Ben Xu and Darrin M. York and Linfeng Zhang and Han Wang},
    title =    {{DeePMD-kit v3: A Multiple-Backend Framework for Machine Learning
             Potentials}},
    journal =  {arXiv},
    year =     2025,
    pages =    {2502.19161},
    doi =      {10.48550/arXiv.2502.19161},
}

- compute centroid/stress/atom for angles, impropers and dihedrals: doi:10.1103/PhysRevE.99.051301

@article{Surblys2019,
 title = {Application of Atomic Stress to Compute Heat Flux via Molecular
    Dynamics for Systems With Many-Body Interactions},
 author = {Surblys, Donatas and Matsubara, Hiroki and Kikugawa, Gota and Ohara, Taku},
 journal = {Physical Review~E},
 volume = {99},
 issue = {5},
 pages = {051301},
 year = {2019},
 doi = {10.1103/PhysRevE.99.051301},
 url = {https://link.aps.org/doi/10.1103/PhysRevE.99.051301}
}

- compute centroid/stress/atom for constrained dynamics: doi:10.1063/5.0070930

@article{Surblys2021,
 author = {Surblys, Donatas and Matsubara, Hiroki and Kikugawa, Gota and Ohara, Taku},
 journal = {Journal of Applied Physics},
 title = {Methodology and Meaning of Computing Heat Flux via Atomic Stress in Systems with
    Constraint Dynamics},
 volume = {130},
 number = {21},
 pages = {215104},
 year = {2021},
 doi = {10.1063/5.0070930},
 url = {https://doi.org/10.1063/5.0070930},
}

CITE-CITE-CITE-CITE-CITE-CITE-CITE-CITE-CITE-CITE-CITE-CITE-CITE

Generated 0 of 1 mixed pair_coeff terms from geometric mixing rule
Neighbor list info ...
  update: every = 1 steps, delay = 0 steps, check = yes
  max neighbors/atom: 2000, page size: 100000
  master list distance cutoff = 8
  ghost atom cutoff = 8
  binsize = 4, bins = 51 18 5
  1 neighbor lists, perpetual/occasional/extra = 1 0 0
  (1) pair deepmd, perpetual
      attributes: full, newton on
      pair build: full/bin/atomonly
      stencil: full/bin/3d
      bin: standard
Per MPI rank memory allocation (min/avg/max) = 5.529 | 5.529 | 5.529 Mbytes
   Step          Temp          E_pair         E_mol          TotEng         Press          Volume    
         0   0             -36031.044      0             -36031.044      13032.407      223907.23    
      2000   10.868288     -36053.411      0             -36047.658     -37.62702       228313.46    
      4000   65.643552     -35777.354      0             -35742.608      585.55224      229071.5     
      6000   289.7032      -35891.718      0             -35738.372     -125.51629      229060.29    
      8000   360.49456     -35927.138      0             -35736.321     -39.10426       228974.64    
     10000   311.94979     -35905.223      0             -35740.101     -36.725119      228994.31    
     12000   302.59668     -35897.549      0             -35737.378     -24.075023      229011.2     
     14000   301.85354     -35895.415      0             -35735.638      23.965033      229009.3     
     16000   309.56189     -35904.483      0             -35740.626      17.316924      228965.65    
     18000   303.28798     -35897.639      0             -35737.103     -2.8099546      228981.14    
     20000   299.46135     -35894.959      0             -35736.448      114.52702      228947.3     
     22000   293.51163     -35895.642      0             -35740.28       118.72905      228953.3     
     24000   302.13795     -35895.557      0             -35735.629     -215.40506      229065.67    
     26000   299.0279      -35894.77       0             -35736.488      190.30738      228932.75    
     28000   300.1383      -35899.468      0             -35740.599      185.62902      228927.67    
     30000   294.11731     -35889.671      0             -35733.988     -126.16079      229042.69    
     32000   289.05471     -35895.3        0             -35742.297      320.7844       228857.45    
     34000   304.23337     -35896.249      0             -35735.212     -77.749241      229009.52    
     36000   301.99139     -35899.504      0             -35739.654     -328.46462      229092.21    
     38000   301.80117     -35893.751      0             -35734.001      639.38492      228768.08    
     40000   292.09322     -35896.68       0             -35742.069     -238.48944      229050.93    
     42000   295.47371     -35892.306      0             -35735.906     -390.50837      229115.22    
     44000   289.36435     -35897.39       0             -35744.223      242.45152      228882.85    
     46000   303.3397      -35896.908      0             -35736.345     -363.5608       229106.27    
     48000   300.3021      -35903.331      0             -35744.375      104.03691      228918.42    
     50000   293.62847     -35896.836      0             -35741.412      181.16782      228896.34    
Loop time of 407.956 on 1 procs for 50000 steps with 4096 atoms

Performance: 10.589 ns/day, 2.266 hours/ns, 122.562 timesteps/s, 502.014 katom-step/s
128.1% CPU use with 1 MPI tasks x 1 OpenMP threads

MPI task timing breakdown:
Section |  min time  |  avg time  |  max time  |%varavg| %total
---------------------------------------------------------------
Pair    | 396.2      | 396.2      | 396.2      |   0.0 | 97.12
Neigh   | 0.019345   | 0.019345   | 0.019345   |   0.0 |  0.00
Comm    | 0.48717    | 0.48717    | 0.48717    |   0.0 |  0.12
Output  | 0.0015663  | 0.0015663  | 0.0015663  |   0.0 |  0.00
Modify  | 10.394     | 10.394     | 10.394     |   0.0 |  2.55
Other   |            | 0.8534     |            |       |  0.21

Nlocal:           4096 ave        4096 max        4096 min
Histogram: 1 0 0 0 0 0 0 0 0 0
Nghost:           1442 ave        1442 max        1442 min
Histogram: 1 0 0 0 0 0 0 0 0 0
Neighs:              0 ave           0 max           0 min
Histogram: 1 0 0 0 0 0 0 0 0 0
FullNghs:       294912 ave      294912 max      294912 min
Histogram: 1 0 0 0 0 0 0 0 0 0

Total # of neighbors = 294912
Ave neighs/atom = 72
Neighbor list builds = 4
Dangerous builds = 0

##---------------DEFORMATION-----------------------------------

unfix		1
reset_timestep	0

fix		1 all npt temp 300 300 0.05 x 0 0 0.5

fix             2 all ave/time 1 100 100 c_2[1] c_2[2]
fix             3 all ave/time 1 100 100 v_Lx v_Ly v_Lz v_Vol

variable        srate equal 1.0e8
variable        srate1 equal "v_srate / 1.0e12"

fix		4 all deform 1 y erate ${srate1} units box remap x
fix		4 all deform 1 y erate 0.0001 units box remap x
run		100
Generated 0 of 1 mixed pair_coeff terms from geometric mixing rule
Per MPI rank memory allocation (min/avg/max) = 5.529 | 5.529 | 5.529 Mbytes
   Step          Temp          E_pair         E_mol          TotEng         Press          Volume    
         0   293.62847     -35896.836      0             -35741.412      181.16782      228896.34    
       100   303.19278     -35895.562      0             -35735.076      341.47379      228871.24    
Loop time of 0.862451 on 1 procs for 100 steps with 4096 atoms

Performance: 10.018 ns/day, 2.396 hours/ns, 115.949 timesteps/s, 474.925 katom-step/s
124.1% CPU use with 1 MPI tasks x 1 OpenMP threads

MPI task timing breakdown:
Section |  min time  |  avg time  |  max time  |%varavg| %total
---------------------------------------------------------------
Pair    | 0.80216    | 0.80216    | 0.80216    |   0.0 | 93.01
Neigh   | 0          | 0          | 0          |   0.0 |  0.00
Comm    | 0.00092019 | 0.00092019 | 0.00092019 |   0.0 |  0.11
Output  | 4.6567e-05 | 4.6567e-05 | 4.6567e-05 |   0.0 |  0.01
Modify  | 0.057739   | 0.057739   | 0.057739   |   0.0 |  6.69
Other   |            | 0.001588   |            |       |  0.18

Nlocal:           4096 ave        4096 max        4096 min
Histogram: 1 0 0 0 0 0 0 0 0 0
Nghost:           1461 ave        1461 max        1461 min
Histogram: 1 0 0 0 0 0 0 0 0 0
Neighs:              0 ave           0 max           0 min
Histogram: 1 0 0 0 0 0 0 0 0 0
FullNghs:       295000 ave      295000 max      295000 min
Histogram: 1 0 0 0 0 0 0 0 0 0

Total # of neighbors = 295000
Ave neighs/atom = 72.021484
Neighbor list builds = 0
Dangerous builds = 0

##---------------THERMO-OUTPUTS--------------------------------

variable        CorVol equal f_3[4]*v_thickn/(f_3[3])
variable        ConvoFac equal 1/1.0e4
variable        sigmaxx equal f_2[1]*v_ConvoFac/v_CorVol
variable        sigmayy equal f_2[2]*v_ConvoFac/v_CorVol

variable        StrainPerTs equal v_srate1*v_ts
variable   	strain equal v_StrainPerTs*step
thermo		1000
thermo_style	custom step temp v_strain v_sigmaxx v_sigmayy pe ke lx ly vol
thermo_modify lost ignore
fix ss all print 500 "${strain} ${sigmayy}" file strain_stress.dat screen no

##---------------DEFORMATION-----------------------------------

dump		1 all atom 5000 tensile_test.lammpstrj
run		3000000
Generated 0 of 1 mixed pair_coeff terms from geometric mixing rule
Per MPI rank memory allocation (min/avg/max) = 6.654 | 6.654 | 6.654 Mbytes
   Step          Temp         v_strain      v_sigmaxx      v_sigmayy        PotEng         KinEng           Lx             Ly           Volume    
       100   303.19278      1e-05          0.0063204524  -0.26449605    -35895.562      160.48609      162.6454       70.358967      228871.24    
      1000   301.95668      0.0001        -0.026010526   -0.22275955    -35903.542      159.8318       162.57772      70.365299      228796.6     
      2000   297.48138      0.0002         0.016076068   -0.17584194    -35898.83       157.46293      162.56941      70.372335      228807.77    
      3000   311.64839      0.0003         0.030846123   -0.15748782    -35899.09       164.96181      162.67104      70.379371      228973.71    
      4000   304.55314      0.0004         0.0045435579  -0.12198267    -35897.217      161.20616      162.69564      70.386407      229031.22    
      5000   297.78837      0.0005        -0.095782161   -0.10822748    -35899.926      157.62542      162.64272      70.393443      228979.62    
      6000   298.68581      0.0006        -0.025882047   -0.052803805   -35895.775      158.10046      162.54019      70.400478      228858.14    
      7000   303.7823       0.0007         0.023112125   -0.0018755039  -35896.357      160.79814      162.56192      70.407514      228911.61    
      8000   307.07413      0.0008         0.077236528    0.052091444   -35899.316      162.54057      162.70311      70.41455       229133.33    
      9000   305.2362       0.0009        -0.011810628    0.049630153   -35901.002      161.56772      162.6327       70.421586      229057.05    
     10000   299.12019      0.001         -0.041903072    0.079085243   -35893.185      158.33039      162.54151      70.428622      228951.5     
     11000   302.66637      0.0011         0.019756782    0.13714919    -35896.372      160.20745      162.45421      70.435658      228851.38    
     12000   303.73981      0.0012         0.037170034    0.19840767    -35900.593      160.77565      162.5946       70.442694      229072.04    
     13000   306.94834      0.0013         0.0059527965   0.21249667    -35898.837      162.47398      162.62366      70.44973       229135.86    
     14000   302.07744      0.0014        -0.085960019    0.22321991    -35899.466      159.89572      162.57092      70.456766      229084.42    
     15000   300.33813      0.0015        -0.0055601715   0.28906152    -35895.862      158.97507      162.52267      70.463802      229039.3     
     16000   298.89676      0.0016         0.040042554    0.34376447    -35895.802      158.21212      162.59915      70.470837      229169.97    
     17000   297.95764      0.0017        -0.043479975    0.34637706    -35894.043      157.71503      162.59144      70.477873      229181.97    
     18000   300.44213      0.0018        -0.0051120283   0.40466132    -35894.462      159.03012      162.52207      70.484909      229107.07    
     19000   295.35019      0.0019         0.014447243    0.44899933    -35894.168      156.33485      162.49436      70.491945      229090.87    
     20000   304.01144      0.002          0.059720523    0.50133689    -35896.523      160.91942      162.61795      70.498981      229288       
     21000   295.47988      0.0021         0.012590886    0.51023939    -35896.883      156.4035       162.54909      70.506017      229213.77    
     22000   302.39266      0.0022        -0.012506224    0.54689245    -35898.503      160.06257      162.60749      70.513053      229319.01    
     23000   296.86148      0.0023        -0.049371419    0.5551667     -35898.606      157.13481      162.45203      70.520089      229122.63    
     24000   294.00726      0.0024         0.031462208    0.61933681    -35897.029      155.62401      162.45923      70.527125      229155.65    
     25000   293.18414      0.0025         0.042839135    0.6897324     -35895.097      155.18831      162.58574      70.53416       229356.97    
     26000   300.72404      0.0026        -0.039926846    0.66951892    -35896.405      159.17934      162.50204      70.541196      229261.77    
     27000   304.12093      0.0027        -0.012823981    0.73525205    -35895.873      160.97738      162.42661      70.548232      229178.2     
     28000   300.16026      0.0028         0.051740733    0.789699      -35893.484      158.88091      162.5162       70.555268      229327.48    
     29000   294.07296      0.0029         0.008442974    0.83307235    -35896.755      155.65879      162.55536      70.562304      229405.62    
     30000   291.0413       0.003         -0.028550039    0.85123145    -35896.623      154.05407      162.44434      70.56934       229271.79    
     31000   296.41229      0.0031         0.0085100534   0.88375028    -35893.982      156.89704      162.32572      70.576376      229127.22    
     32000   302.33462      0.0032         0.041061991    0.93271955    -35895.336      160.03185      162.48215      70.583412      229370.89    
     33000   302.81647      0.0033         0.0072266056   0.9548458     -35895.125      160.2869       162.53609      70.590448      229469.91    
     34000   296.47611      0.0034        -0.044317869    0.9693187     -35895.057      156.93082      162.38813      70.597484      229283.86    
     35000   292.35768      0.0035         0.041996052    1.0498321     -35894.714      154.75085      162.39705      70.604519      229319.32    
     36000   292.45375      0.0036         0.022918123    1.081456      -35895.577      154.80171      162.44869      70.611555      229415.09    
     37000   297.84904      0.0037        -0.013033406    1.1020494     -35897.206      157.65754      162.44968      70.618591      229439.35    
     38000   298.02739      0.0038        -0.049748085    1.1291663     -35895.262      157.75195      162.2938       70.625627      229242.04    
     39000   305.39696      0.0039         0.024784244    1.1978151     -35896.388      161.65281      162.41379      70.632663      229434.37    
     40000   298.4902       0.004          0.0017891721   1.2200006     -35897.109      157.99692      162.4304       70.639699      229480.69    
     41000   296.49444      0.0041        -0.0025611263   1.2552232     -35893.833      156.94052      162.42001      70.646735      229488.87    
     42000   297.20473      0.0042        -0.047168995    1.2859039     -35894.406      157.3165       162.40653      70.653771      229492.68    
     43000   298.72447      0.0043        -0.034974777    1.3323843     -35897.078      158.12092      162.31743      70.660807      229389.61    
     44000   303.82866      0.0044         0.0083775286   1.3786774     -35895.237      160.82267      162.39376      70.667843      229520.33    
     45000   295.8724       0.0045        -0.0054256076   1.40491       -35891.776      156.61127      162.35766      70.674878      229492.16    
     46000   300.42233      0.0046         0.065321996    1.4552275     -35893.715      159.01964      162.40347      70.681914      229579.76    
     47000   297.51083      0.0047        -0.0044671274   1.480337      -35891.912      157.47852      162.42748      70.68895       229636.55    
     48000   302.10967      0.0048        -0.034528994    1.5073303     -35897.229      159.91278      162.36004      70.695986      229564.06    
     49000   297.77099      0.0049        -0.0080362634   1.5544293     -35893          157.61623      162.20023      70.703022      229360.92    
     50000   298.42788      0.005          0.019443568    1.6124267     -35894.661      157.96393      162.38265      70.710058      229641.73    
     51000   292.11686      0.0051        -0.0041704926   1.6369644     -35893.491      154.62338      162.38092      70.717094      229662.13    
     52000   300.76833      0.0052        -0.067509147    1.656606      -35895.119      159.20278      162.30626      70.72413       229579.38    
     53000   298.89377      0.0053         0.010404288    1.7228865     -35888.488      158.21054      162.29749      70.731166      229589.81    
     54000   303.02035      0.0054         0.017896985    1.758348      -35893.028      160.39482      162.36884      70.738201      229713.59    
     55000   302.38738      0.0055        -0.0063538086   1.7857143     -35891.162      160.05978      162.35716      70.745237      229719.91    
     56000   301.82915      0.0056        -0.083946058    1.7920766     -35890.827      159.76429      162.23859      70.752273      229574.97    
     57000   298.05093      0.0057         0.0056664657   1.8679283     -35894.551      157.76441      162.22612      70.759309      229580.16    
     58000   303.35282      0.0058         0.035013753    1.9072497     -35893.391      160.5708       162.32319      70.766345      229740.38    
     59000   306.69145      0.0059         0.001808653    1.9217615     -35893.075      162.33801      162.35001      70.773381      229801.18    
     60000   297.17061      0.006         -0.067035442    1.9228586     -35893.707      157.29843      162.23049      70.780417      229654.83    
     61000   297.18407      0.0061        -0.0048004906   1.9849611     -35891.216      157.30556      162.2558       70.787453      229713.5     
     62000   306.1142       0.0062        -0.0023705643   2.025845      -35893.802      162.03246      162.26664      70.794489      229751.67    
     63000   292.4934       0.0063        -0.0022563258   2.0744822     -35888.837      154.82269      162.29248      70.801525      229811.1     
     64000   294.62438      0.0064        -0.076683893    2.0775477     -35893.023      155.95067      162.2057       70.80856       229711.04    
     65000   300.95401      0.0065         0.014473379    2.1655515     -35898.397      159.30106      162.21305      70.815596      229744.28    
     66000   302.02849      0.0066         0.022008764    2.1902946     -35891.805      159.86981      162.27595      70.822632      229856.2     
     67000   297.12177      0.0067         0.0078792165   2.220604      -35886.789      157.27258      162.33665      70.829668      229965.02    
     68000   299.24771      0.0068        -0.034220029    2.2410324     -35889.456      158.39789      162.22684      70.836704      229832.3     
     69000   302.9452       0.0069         0.0094470214   2.3030766     -35891.303      160.35504      162.21758      70.84374       229842       
     70000   297.38772      0.007          0.026584638    2.3478994     -35891.398      157.41336      162.3024       70.850776      229985.02    
     71000   293.61836      0.0071        -0.034597294    2.3630635     -35893.674      155.41816      162.22193      70.857812      229893.83    
     72000   304.00022      0.0072        -0.010237291    2.4042472     -35894.07       160.91349      162.05369      70.864848      229678.2     
     73000   306.279        0.0073         0.027227419    2.4535131     -35888.045      162.11969      162.26872      70.871884      230005.79    
     74000   305.51327      0.0074        -0.03466671     2.4831323     -35894.607      161.71438      162.20426      70.878919      229937.26    
     75000   302.1724       0.0075        -0.020069049    2.5160784     -35890.215      159.94598      162.10231      70.885955      229815.54    
     76000   300.20568      0.0076         0.023959745    2.563921      -35890.979      158.90496      162.20122      70.892991      229978.59    
     77000   298.38216      0.0077         0.0090987838   2.5977559     -35889.777      157.93973      162.28831      70.900027      230124.91    
     78000   301.97019      0.0078        -0.045798944    2.617257      -35891.284      159.83895      162.13694      70.907063      229933.08    
     79000   302.30778      0.0079         0.04159232     2.6930416     -35890.463      160.01764      162.14416      70.914099      229966.14    
     80000   290.21776      0.008          0.030801809    2.738936      -35886.091      153.61815      162.26129      70.921135      230155.09    
     81000   303.90909      0.0081        -0.04377606     2.7348288     -35890.154      160.86525      162.15441      70.928171      230026.32    
     82000   303.29181      0.0082        -0.0061378324   2.7848375     -35891.22       160.53851      162.07104      70.935207      229930.86    
     83000   303.53716      0.0083         0.047489175    2.8375759     -35893.743      160.66838      162.21714      70.942243      230160.95    
     84000   300.67834      0.0084        -0.020414156    2.8531743     -35889.109      159.15515      162.15038      70.949278      230089.04    
     85000   302.07094      0.0085         0.0020160788   2.8756797     -35885.597      159.89228      162.06604      70.956314      229992.17    
     86000   304.62134      0.0086         0.056622015    2.9531333     -35893.295      161.24226      162.17907      70.96335       230175.4     
     87000   303.1827       0.0087        -0.010984908    2.9645601     -35888.052      160.48075      162.1586       70.970386      230169.17    
     88000   301.56154      0.0088        -0.10203412     2.9691446     -35887.124      159.62264      161.94334      70.977422      229886.41    
     89000   301.84112      0.0089         0.0301977      3.0506477     -35885.091      159.77063      162.09326      70.984458      230122.04    
     90000   295.86499      0.009         -0.0045373368   3.0906955     -35891.598      156.60735      162.11268      70.991494      230172.42    
     91000   301.6415       0.0091        -0.019480368    3.1012053     -35884.439      159.66497      162.06529      70.99853       230127.94    
     92000   299.08853      0.0092         0.05956789     3.1675552     -35884.715      158.31363      162.10448      71.005566      230206.41    
     93000   301.17492      0.0093         0.0057731437   3.1812317     -35885.609      159.418        162.13544      71.012601      230273.19    
     94000   298.7977       0.0094        -0.029003371    3.2136832     -35884.561      158.15968      162.0365       71.019637      230155.47    
     95000   300.33722      0.0095         0.069674728    3.2954523     -35887.03       158.97459      162.02441      71.026673      230161.1     
     96000   299.50415      0.0096         0.019972769    3.3085818     -35887.829      158.53362      162.1239       71.033709      230325.23    
     97000   293.26439      0.0097        -0.03386322     3.3370721     -35883.409      155.23079      162.11427      71.040745      230334.37    
     98000   301.66352      0.0098        -0.040519986    3.3586132     -35885.542      159.67663      161.9584       71.047781      230135.69    
     99000   295.63879      0.0099         0.025815355    3.4000513     -35882.893      156.48761      162.08742      71.054817      230341.84    
    100000   298.6943       0.01          -0.030789359    3.4284712     -35885.122      158.10496      162.07273      71.061853      230343.76    
    101000   298.75917      0.0101        -0.0020827893   3.4681908     -35885.595      158.13929      161.98003      71.068889      230234.81    
    102000   299.95886      0.0102         0.063432361    3.544356      -35886.706      158.77431      162.11327      71.075925      230447       
    103000   305.05774      0.0103        -0.021986544    3.5435145     -35884.821      161.47325      162.08277      71.08296       230426.47    
    104000   296.63448      0.0104        -0.033956775    3.5717558     -35889.558      157.01465      161.95646      71.089996      230269.69    
    105000   299.3827       0.0105         0.036378015    3.6291207     -35888.523      158.46934      162.04833      71.097032      230423.11    
    106000   293.89959      0.0106        -0.0030168778   3.6577636     -35887.621      155.56702      162.0317       71.104068      230422.25    
    107000   290.3657       0.0107         0.0022378534   3.6857709     -35885.632      153.69646      161.96192      71.111104      230345.81    
    108000   296.40188      0.0108         0.055244466    3.7355591     -35884.992      156.89153      162.0677       71.11814       230519.06    
    109000   302.62827      0.0109        -0.0083954523   3.7597514     -35886.372      160.18729      162.02002      71.125176      230474.05    
    110000   303.50058      0.011         -0.019294708    3.8023985     -35884.081      160.64902      161.90161      71.132212      230328.4     
    111000   304.03798      0.0111         0.060431316    3.856742      -35885.389      160.93347      162.04205      71.139248      230551       
    112000   298.25281      0.0112        -0.012399411    3.872179      -35886.909      157.87127      162.03748      71.146284      230567.29    
    113000   301.8498       0.0113        -0.0057438793   3.9261181     -35885.304      159.77522      161.95307      71.153319      230469.96    
    114000   304.37792      0.0114         0.013091319    3.9660336     -35887.065      161.11341      162.00149      71.160355      230561.68    
    115000   298.11039      0.0115        -0.062707484    3.9783202     -35882.145      157.79588      161.96746      71.167391      230536.04    
    116000   297.97764      0.0116        -0.0042619053   4.0245933     -35880.835      157.72561      161.90425      71.174427      230468.85    
    117000   305.36943      0.0117         0.037355857    4.0719829     -35879.01       161.63823      162.01177      71.181463      230644.7     
    118000   295.53634      0.0118        -0.025296296    4.093823      -35877.848      156.43338      161.97736      71.188499      230618.51    
    119000   300.34767      0.0119        -0.0088822027   4.1399145     -35881.356      158.98012      161.86272      71.195535      230478.06    
    120000   297.38408      0.012          0.031235147    4.1922        -35883.393      157.41143      162.0144       71.202571      230716.84    
    121000   302.89003      0.0121        -0.077372614    4.1972596     -35884.169      160.32584      161.91043      71.209607      230591.56    
    122000   299.13798      0.0122         0.0013290711   4.2502472     -35880.684      158.3398       161.85817      71.216642      230539.91    
    123000   296.89017      0.0123         0.039371674    4.3113918     -35883.102      157.14999      161.98476      71.223678      230743       
    124000   300.06599      0.0124        -0.024938377    4.3305806     -35882.033      158.83102      161.93738      71.230714      230698.3     
    125000   308.10331      0.0125        -0.0027375045   4.3751324     -35878.761      163.08533      161.88009      71.23775       230639.47    
    126000   288.16362      0.0126         0.041212307    4.4233286     -35880.853      152.53085      161.95569      71.244786      230769.97    
    127000   296.16714      0.0127        -0.04051104     4.4153778     -35877.071      156.76728      161.94727      71.251822      230780.76    
    128000   292.77406      0.0128        -0.011105671    4.4778078     -35879.995      154.97125      161.86631      71.258858      230688.16    
    129000   305.95818      0.0129         0.01245042     4.5222426     -35882.637      161.94987      161.92639      71.265894      230796.58    
    130000   304.76461      0.013         -0.044765824    4.5231194     -35873.422      161.31809      161.88399      71.27293       230758.92    
    131000   302.08318      0.0131        -0.0025293633   4.5780775     -35879.285      159.89876      161.81231      71.279966      230679.52    
    132000   298.92748      0.0132         0.010410038    4.6268129     -35882.214      158.22838      161.91529      71.287001      230849.11    
    133000   300.5129       0.0133        -0.0091014888   4.653032      -35876.676      159.06757      161.87439      71.294037      230813.57    
    134000   304.18967      0.0134         0.0028476144   4.697995      -35876.735      161.01377      161.83372      71.301073      230778.36    
    135000   299.37634      0.0135         0.053458755    4.7510489     -35876.705      158.46597      161.9285       71.308109      230936.3     
    136000   300.07016      0.0136        -0.029911629    4.7600994     -35876.091      158.83323      161.85262      71.315145      230850.86    
    137000   309.51827      0.0137         0.015596649    4.8035186     -35878.506      163.8343       161.85678      71.322181      230879.57    
    138000   300.20492      0.0138        -0.017652073    4.848768      -35884.02       158.90456      161.96235      71.329217      231052.94    
    139000   307.19997      0.0139        -0.013495058    4.8858712     -35880.549      162.60718      161.78424      71.336253      230821.63    
    140000   303.23614      0.014          0.028103067    4.9246353     -35877.009      160.50904      161.87742      71.343289      230977.35    
    141000   304.66793      0.0141        -0.072843607    4.9336022     -35880.498      161.26692      161.81901      71.350325      230916.78    
    142000   298.62191      0.0142         0.0035760592   4.9913912     -35878.335      158.06664      161.76115      71.35736       230856.98    
    143000   293.7905       0.0143         0.047528635    5.0524318     -35874.133      155.50927      161.87527      71.364396      231042.61    
    144000   298.32484      0.0144        -0.029512627    5.0461426     -35878.985      157.90939      161.81756      71.371432      230983.02    
    145000   293.26756      0.0145         0.0098639642   5.108527      -35873.768      155.23247      161.82507      71.378468      231016.52    
    146000   301.65003      0.0146        -0.027122537    5.1388956     -35875.92       159.66948      161.76189      71.385504      230949.08    
    147000   299.10798      0.0147         0.047525606    5.1966866     -35874.107      158.32392      161.77952      71.39254       230997.01    
    148000   299.47321      0.0148        -0.0038449683   5.2080628     -35877.293      158.51725      161.81237      71.399576      231066.69    
    149000   300.63954      0.0149        -0.0016014327   5.257722      -35874.216      159.13461      161.78912      71.406612      231056.25    
    150000   302.30601      0.015         -0.036017761    5.2671988     -35873.128      160.01671      161.75559      71.413648      231031.13    
    151000   308.39086      0.0151         0.022290202    5.3256588     -35875.312      163.23754      161.72303      71.420683      231007.39    
    152000   296.37166      0.0152         0.014320146    5.3676706     -35874.029      156.87554      161.81736      71.427719      231164.9     
    153000   303.76762      0.0153        -0.0090726764   5.4071509     -35875.287      160.79036      161.74527      71.434755      231084.67    
    154000   303.31724      0.0154        -0.001911994    5.4274755     -35874.256      160.55197      161.73772      71.441791      231096.65    
    155000   303.34114      0.0155         0.03252097     5.4871742     -35876.728      160.56462      161.74127      71.448827      231124.48    
    156000   297.50172      0.0156        -0.020356854    5.5069897     -35871.911      157.4737       161.82956      71.455863      231273.41    
    157000   292.17155      0.0157        -0.0019050217   5.5433281     -35874.533      154.65233      161.69562      71.462899      231104.75    
    158000   305.94956      0.0158         0.00053648057  5.589205      -35874.284      161.94531      161.72638      71.469935      231171.48    
    159000   302.81416      0.0159         0.022511235    5.6256851     -35872.581      160.28568      161.76704      71.476971      231252.35    
    160000   303.6772       0.016         -0.054290785    5.6263517     -35868.334      160.74251      161.69096      71.484007      231166.35    
    161000   296.26233      0.0161         0.053773262    5.7137453     -35868.633      156.81766      161.6503       71.491042      231130.96    
    162000   299.09447      0.0162         0.0040183002   5.7189758     -35868.242      158.31677      161.74341      71.498078      231286.86    
    163000   305.17718      0.0163        -0.010765449    5.7550217     -35874.746      161.53648      161.62371      71.505114      231138.44    
    164000   296.72793      0.0164         0.069797796    5.817408      -35869.651      157.06411      161.77589      71.51215       231378.83    
    165000   300.16297      0.0165        -0.030283471    5.8355204     -35872.958      158.88235      161.68776      71.519186      231275.54    
    166000   298.45597      0.0166         0.0096842589   5.8921664     -35871.09       157.9788       161.59837      71.526222      231170.42    
    167000   299.1149       0.0167         0.030680217    5.9239232     -35873.822      158.32759      161.75974      71.533258      231424.03    
    168000   298.19014      0.0168        -0.029301897    5.9479761     -35874.075      157.83809      161.64564      71.540294      231283.53    
    169000   298.25671      0.0169         0.029943966    5.9952058     -35870.502      157.87333      161.61407      71.54733       231261.11    
    170000   294.83989      0.017          0.0052619813   6.0296692     -35870.08       156.06474      161.66557      71.554366      231357.54    
    171000   295.84186      0.0171        -0.0081211507   6.0607601     -35864.385      156.5951       161.73369      71.561401      231477.79    
    172000   306.45806      0.0172        -0.043042284    6.0740105     -35870.381      162.21447      161.52699      71.568437      231204.69    
    173000   298.22721      0.0173         0.0077425984   6.1359259     -35869.327      157.85771      161.66794      71.575473      231429.19    
    174000   307.14147      0.0174        -0.0020575024   6.1665203     -35870.137      162.57621      161.62581      71.582509      231391.63    
    175000   300.2536       0.0175         0.0042935278   6.2037015     -35867.225      158.93032      161.6695       71.589545      231476.92    
    176000   299.46489      0.0176        -0.047492566    6.2270358     -35869.581      158.51285      161.55636      71.596581      231337.66    
    177000   297.88278      0.0177         0.038863642    6.2936059     -35869.628      157.6754       161.62593      71.603617      231460.02    
    178000   296.51333      0.0178         0.013444638    6.3197175     -35867.896      156.95053      161.62866      71.610653      231486.68    
    179000   306.84704      0.0179        -0.028432574    6.3418734     -35868.532      162.42037      161.61204      71.617689      231485.62    
    180000   303.32748      0.018         -0.0013948287   6.3882149     -35866.733      160.55739      161.54451      71.624724      231411.63    
    181000   297.83369      0.0181         0.03865852     6.4426636     -35862.189      157.64941      161.74768      71.63176       231725.43    
    182000   298.81546      0.0182        -0.029253743    6.4455562     -35863.913      158.16909      161.55629      71.638796      231473.96    
    183000   294.86494      0.0183         0.027927819    6.5118453     -35862.213      156.078        161.61651      71.645832      231582.99    
    184000   307.26527      0.0184        -0.052801566    6.5060858     -35865.691      162.64174      161.59294      71.652868      231571.96    
    185000   300.60924      0.0185         0.0090826956   6.5748208     -35861.445      159.11857      161.49627      71.659904      231456.15    
    186000   298.46532      0.0186         0.014244209    6.6225688     -35866.987      157.98375      161.58921      71.66694       231612.08    
    187000   301.81438      0.0187        -0.034557417    6.6380151     -35863.965      159.75648      161.53864      71.673976      231562.33    
    188000   301.58442      0.0188         0.037406019    6.6980086     -35865.273      159.63475      161.54218      71.681012      231590.13    
    189000   306.88714      0.0189        -0.005900485    6.7159474     -35867.012      162.44159      161.6442       71.688048      231759.14    
    190000   296.23753      0.019         -0.011971069    6.7572941     -35862.226      156.80454      161.54275      71.695083      231636.42    
    191000   293.42605      0.0191         0.034912078    6.810242      -35863.679      155.31636      161.62227      71.702119      231773.19    
    192000   302.13727      0.0192        -0.05913894     6.8071062     -35863.643      159.92739      161.51667      71.709155      231644.48    
    193000   298.55132      0.0193         0.010869463    6.8658512     -35864.455      158.02927      161.52374      71.716191      231677.34    
    194000   301.04222      0.0194        -0.06413857     6.8736124     -35859.666      159.34776      161.61964      71.723227      231837.65    
    195000   302.98111      0.0195        -0.0030963263   6.9130354     -35857.236      160.37405      161.45534      71.730263      231624.68    
    196000   301.81994      0.0196         0.027913887    6.9631115     -35859.479      159.75942      161.57604      71.737299      231820.58    
    197000   297.54992      0.0197        -0.080643917    6.9689737     -35859.475      157.49921      161.43339      71.744335      231638.62    
    198000   296.43213      0.0198         0.021363178    7.0430862     -35858.904      156.90754      161.47265      71.751371      231717.68    
    199000   296.42557      0.0199        -0.010239246    7.068828      -35859.148      156.90407      161.53424      71.758407      231828.8     
    200000   300.54308      0.02          -0.036143688    7.1077841     -35861.913      159.08355      161.33711      71.765442      231568.58    
    201000   298.6306       0.0201         0.048054547    7.17254       -35860.129      158.07123      161.55882      71.772478      231909.53    
    202000   301.88719      0.0202        -0.037590554    7.1854363     -35864.275      159.79502      161.45357      71.779514      231781.18    
    203000   294.24833      0.0203         0.0092903174   7.240265      -35862.343      155.75161      161.45431      71.78655       231804.96    
    204000   295.64706      0.0204         0.0037581549   7.2618127     -35859.685      156.49199      161.4918       71.793586      231881.5     
    205000   295.353        0.0205        -0.023764997    7.2962171     -35858.785      156.33634      161.38558      71.800622      231751.69    
    206000   289.76349      0.0206         0.04754692     7.3575644     -35857.295      153.37769      161.53392      71.807658      231987.45    
    207000   303.12941      0.0207        -0.017755436    7.3634896     -35860.212      160.45255      161.41875      71.814694      231844.76    
    208000   297.10368      0.0208         0.035139566    7.430266      -35855.105      157.26301      161.4746       71.82173       231947.69    
    209000   303.11621      0.0209        -0.034161153    7.443198      -35855.513      160.44556      161.50024      71.828765      232007.25    
    210000   297.73506      0.021          0.0069592897   7.5008445     -35855.515      157.59721      161.38718      71.835801      231867.55    
    211000   303.4845       0.0211         0.038572553    7.5377113     -35855.901      160.6405       161.52712      71.842837      232091.33    
    212000   304.63015      0.0212        -0.057559504    7.5463526     -35854.371      161.24692      161.39497      71.849873      231924.17    
    213000   306.12937      0.0213         0.0046139285   7.610342      -35857.067      162.04049      161.40782      71.856909      231965.33    
    214000   300.78459      0.0214         0.015109641    7.6203823     -35855.332      159.21139      161.47226      71.863945      232080.68    
    215000   299.18785      0.0215        -0.015708748    7.660198      -35855.931      158.3662       161.32941      71.870981      231898.06    
    216000   302.86674      0.0216         0.038881435    7.7188171     -35851.676      160.31351      161.50758      71.878017      232176.9     
    217000   304.13925      0.0217        -0.015537643    7.7361759     -35853.182      160.98708      161.4071       71.885053      232055.16    
    218000   295.79445      0.0218         0.02707672     7.7789232     -35850.355      156.57         161.42785      71.892089      232107.7     
    219000   289.17754      0.0219        -0.069342985    7.8021796     -35851.561      153.06754      161.38422      71.899124      232067.68    
    220000   303.34101      0.022          0.010220954    7.8459523     -35847.968      160.56455      161.37801      71.90616       232081.46    
    221000   300.37411      0.0221         0.007367236    7.8980017     -35848.357      158.99411      161.4393       71.913196      232192.33    
    222000   296.5415       0.0222        -0.043272028    7.9144569     -35849.954      156.96543      161.25847      71.920232      231954.93    
    223000   307.21744      0.0223         0.025325941    7.9648089     -35857.33       162.61643      161.40247      71.927268      232184.77    
    224000   299.1137       0.0224        -0.017730509    7.9755419     -35848.492      158.32695      161.32494      71.934304      232095.94    
    225000   299.68142      0.0225         0.087689353    8.0517321     -35848.199      158.62746      161.42356      71.94134       232260.54    
    226000   306.47059      0.0226        -0.037028775    8.0540297     -35853.149      162.2211       161.34735      71.948376      232173.59    
    227000   293.23079      0.0227         0.010117855    8.1210343     -35846.283      155.21301      161.30372      71.955412      232133.52    
    228000   299.95539      0.0228         0.027781409    8.1566827     -35847.133      158.77248      161.48223      71.962448      232413.13    
    229000   300.19263      0.0229        -0.031966694    8.1676296     -35847.575      158.89805      161.28065      71.969483      232145.71    
    230000   296.75115      0.023          0.041180848    8.2164222     -35841.789      157.07641      161.35124      71.976519      232270.01    
    231000   297.29489      0.0231        -0.0704892      8.2062828     -35849.357      157.36422      161.38213      71.983555      232337.19    
    232000   296.68276      0.0232         0.022408398    8.2812486     -35848.094      157.04021      161.28854      71.990591      232225.15    
    233000   301.45865      0.0233        -0.0027009933   8.3145574     -35843.746      159.56818      161.36217      71.997627      232353.86    
    234000   308.8071       0.0234        -0.012478435    8.345482      -35844.048      163.45786      161.30833      72.004663      232299.04    
    235000   302.70548      0.0235         0.016735457    8.3926947     -35846.392      160.22815      161.31317      72.011699      232328.71    
    236000   300.98119      0.0236        -0.030240312    8.4353656     -35848.11       159.31545      161.34697      72.018735      232400.09    
    237000   311.62923      0.0237        -0.0056427629   8.4641204     -35850.526      164.95168      161.24947      72.025771      232282.35    
    238000   303.59284      0.0238        -0.0049136495   8.5051861     -35845.121      160.69785      161.3045       72.032806      232384.32    
    239000   305.14475      0.0239         0.014540441    8.5433692     -35847.466      161.51931      161.26228      72.039842      232346.18    
    240000   293.72817      0.024         -0.0088655556   8.5769164     -35842.674      155.47628      161.33971      72.046878      232480.46    
    241000   305.86143      0.0241        -0.025413801    8.6096152     -35845.947      161.89866      161.17738      72.053914      232269.22    
    242000   299.0811       0.0242         0.081117495    8.679073      -35844.088      158.3097       161.3682       72.06095       232566.92    
    243000   296.8215       0.0243        -0.02929308     8.6736561     -35842.047      157.11365      161.25955      72.067986      232433.02    
    244000   299.71416      0.0244         0.032913717    8.7411857     -35844.595      158.64479      161.22774      72.075022      232409.85    
    245000   301.40342      0.0245        -0.0052623692   8.7591944     -35843.134      159.53895      161.33819      72.082058      232591.78    
    246000   298.47138      0.0246        -0.0056390688   8.7878245     -35843.078      157.98696      161.2147       72.089094      232436.43    
    247000   303.34377      0.0247         0.014216102    8.8343485     -35841.926      160.56601      161.40632      72.09613       232735.42    
    248000   298.55335      0.0248        -0.030183305    8.8567048     -35840.766      158.03035      161.16188      72.103165      232405.63    
    249000   290.96163      0.0249         0.04410822     8.9189149     -35835.937      154.01189      161.29617      72.110201      232621.99    
    250000   305.829        0.025         -0.073764956    8.9136281     -35839.528      161.8815       161.15489      72.117237      232440.91    
    251000   302.50131      0.0251         0.023922564    8.9751955     -35838.247      160.12008      161.21083      72.124273      232544.27    
    252000   300.79976      0.0252        -0.011130095    9.000476      -35836.074      159.21942      161.23855      72.131309      232606.95    
    253000   300.71719      0.0253        -0.011678026    9.045267      -35837.221      159.17571      161.09621      72.138345      232424.28    
    254000   301.40442      0.0254         0.026970584    9.0805665     -35840.672      159.53948      161.27834      72.145381      232709.74    
    255000   304.77782      0.0255        -0.01046742     9.1221317     -35840.543      161.32508      161.1667       72.152417      232571.33    
    256000   299.7962       0.0256         0.0047860352   9.1508539     -35833.536      158.68821      161.2385       72.159453      232697.64    
    257000   296.42633      0.0257        -0.03521703     9.165462      -35833.729      156.90447      161.11586      72.166489      232543.32    
    258000   298.46868      0.0258         0.047553181    9.2423312     -35838.314      157.98553      161.236        72.173524      232739.41    
    259000   292.27372      0.0259        -0.02890772     9.2720407     -35833.256      154.70641      161.17482      72.18056       232673.77    
    260000   298.92964      0.026          0.017800953    9.3180318     -35839.52       158.22953      161.158        72.187596      232672.18    
    261000   299.86571      0.0261        -0.0098314132   9.3432328     -35835.571      158.72501      161.2827       72.194632      232874.91    
    262000   297.82343      0.0262        -0.0073471719   9.3857696     -35831.737      157.64399      161.12177      72.201668      232665.21    
    263000   303.8018       0.0263         0.027853511    9.4081817     -35832.242      160.80846      161.20389      72.208704      232806.47    
    264000   297.32943      0.0264        -0.057119016    9.4261657     -35833.327      157.3825       161.1307       72.21574       232723.45    
    265000   302.28035      0.0265         0.025415553    9.495436      -35834.731      160.00312      161.14088      72.222776      232760.84    
    266000   302.85058      0.0266         0.0082912362   9.4927134     -35831.089      160.30496      161.15167      72.229812      232799.09    
    267000   302.17097      0.0267        -0.016368168    9.5315904     -35832.367      159.94523      161.05332      72.236847      232679.69    
    268000   302.92325      0.0268         0.031646863    9.5914119     -35833.512      160.34343      161.2294       72.243883      232956.76    
    269000   300.12909      0.0269        -0.010849635    9.6150704     -35832.842      158.86442      161.09586      72.250919      232786.48    
    270000   298.09861      0.027          0.013484626    9.666452      -35833.628      157.78964      161.11042      72.257955      232830.19    
    271000   299.80327      0.0271        -0.0093486915   9.704095      -35831.368      158.69196      161.13738      72.264991      232891.83    
    272000   298.96122      0.0272         0.0010952404   9.7256967     -35827.68       158.24624      160.99855      72.272027      232713.82    
    273000   304.73136      0.0273         0.0071797377   9.7656332     -35831.563      161.30049      161.13545      72.279063      232934.38    
    274000   305.94794      0.0274        -0.014576314    9.8030401     -35831.306      161.94445      161.0331       72.286099      232809.09    
    275000   301.2835       0.0275         0.068430247    9.8669368     -35825.928      159.47547      161.21963      72.293135      233101.44    
    276000   309.36024      0.0276        -0.039381509    9.8553548     -35828.81       163.75065      161.03271      72.300171      232853.85    
    277000   302.01482      0.0277         0.042978122    9.9299873     -35825.172      159.86257      161.14451      72.307206      233038.19    
    278000   305.57874      0.0278        -0.02999356     9.9350502     -35827.564      161.74903      161.03335      72.314242      232900.09    
    279000   310.55118      0.0279         0.039226943    9.9837864     -35823.827      164.38104      161.12894      72.321278      233061.01    
    280000   304.0934       0.028         -0.066323387    9.994007      -35825.805      160.96281      161.06607      72.328314      232992.75    
    281000   310.68772      0.0281         0.013364877    10.055625     -35824.905      164.45332      161.04567      72.33535       232985.9     
    282000   300.31896      0.0282         0.004716447    10.078926     -35824.794      158.96492      161.12382      72.342386      233121.63    
    283000   304.98848      0.0283        -0.0062093542   10.134231     -35823.238      161.43659      161.01381      72.349422      232985.12    
    284000   297.65188      0.0284         0.027344132    10.179611     -35820.668      157.55318      161.13348      72.356458      233180.96    
    285000   302.57651      0.0285        -0.043099915    10.17325      -35820.13       160.15989      160.97437      72.363494      232973.36    
    286000   300.65922      0.0286         0.021142447    10.235011     -35823.142      159.14503      161.04597      72.37053       233099.64    
    287000   303.91218      0.0287         0.0037546798   10.275234     -35823.616      160.86688      161.04505      72.377565      233120.98    
    288000   297.53067      0.0288        -0.055551679    10.314254     -35825.144      157.48902      160.98167      72.384601      233051.89    
    289000   300.92175      0.0289         0.031086538    10.349997     -35820.002      159.28399      161.00759      72.391637      233112.06    
    290000   303.12309      0.029         -0.0058702366   10.361742     -35820.715      160.4492       161.02745      72.398673      233163.48    
    291000   299.64668      0.0291         0.040616964    10.42234      -35819.775      158.60907      161.02093      72.405709      233176.69    
    292000   299.70255      0.0292        -0.025855181    10.442565     -35819.111      158.63864      161.02435      72.412745      233204.3     
    293000   299.57776      0.0293         0.028120534    10.502693     -35821.25       158.57259      160.95594      72.419781      233127.88    
    294000   295.9328       0.0294         0.0042167515   10.535815     -35816.259      156.64324      161.08665      72.426817      233339.87    
    295000   296.49487      0.0295        -0.0090881568   10.564197     -35815.807      156.94075      160.95308      72.433853      233169.03    
    296000   296.92999      0.0296         0.015626786    10.605625     -35815.965      157.17107      161.00043      72.440888      233260.29    
    297000   298.95434      0.0297        -0.027382824    10.642309     -35818.582      158.2426       160.96344      72.447924      233229.35    
    298000   302.43823      0.0298         0.074610325    10.703684     -35817.219      160.08669      161.01606      72.45496       233328.25    
    299000   291.48028      0.0299        -0.022356494    10.712531     -35814.168      154.28643      160.94837      72.461996      233252.8     
    300000   296.88082      0.03           0.010136912    10.75781      -35814.116      157.14504      160.98639      72.469032      233330.56    
    301000   303.10369      0.0301        -0.030299671    10.771808     -35813.798      160.43893      160.91432      72.476068      233248.74    
    302000   300.37317      0.0302         0.035239565    10.826326     -35816.213      158.99362      161.06565      72.483104      233490.76    
    303000   298.30952      0.0303        -0.02278596     10.843129     -35813.204      157.90128      160.90999      72.49014       233287.75    
    304000   308.96325      0.0304        -0.0090128815   10.88861      -35817.146      163.54052      160.96757      72.497176      233393.88    
    305000   302.04664      0.0305        -0.019339292    10.918231     -35812.382      159.87942      160.84429      72.504212      233237.77    
    306000   295.61545      0.0306         0.038596302    10.967102     -35805.4        156.47526      161.00565      72.511247      233494.41    
    307000   301.32939      0.0307        -0.012547069    10.990924     -35809.64       159.49976      160.92077      72.518283      233393.96    
    308000   297.35447      0.0308         0.016769413    11.021899     -35808.571      157.39575      160.97122      72.525319      233489.79    
    309000   297.38682      0.0309        -0.0089207869   11.058344     -35813.118      157.41288      160.86788      72.532355      233362.52    
    310000   307.43843      0.031          0.027598185    11.103066     -35810.727      162.7334       160.99073      72.539391      233563.39    
    311000   298.41         0.0311        -0.048983714    11.117468     -35813.388      157.95447      160.82824      72.546427      233350.29    
    312000   292.14906      0.0312         0.038876392    11.173581     -35808.766      154.64043      160.92979      72.553463      233520.27    
    313000   302.75618      0.0313        -0.0042707521   11.194209     -35803.341      160.25499      160.90902      72.560499      233512.77    
    314000   308.3025       0.0314         0.072951008    11.253404     -35806.744      163.19077      160.9369       72.567535      233575.87    
    315000   294.197        0.0315        -0.031468001    11.277438     -35810.082      155.72444      160.89159      72.574571      233532.77    
    316000   296.36614      0.0316         0.021333109    11.319133     -35801.451      156.87261      160.87597      72.581606      233532.73    
    317000   294.60512      0.0317        -0.063471336    11.327606     -35801.4        155.94047      161.00919      72.588642      233748.77    
    318000   297.2652       0.0318         0.024245141    11.385876     -35805.387      157.3485       160.83056      72.595678      233512.07    
    319000   304.43681      0.0319         0.0022244222   11.416485     -35809.148      161.14458      160.89         72.602714      233621.01    
    320000   300.94075      0.032          0.011101514    11.451528     -35803.086      159.29405      160.74822      72.60975       233437.76    
    321000   306.19671      0.0321         0.0015062337   11.476751     -35804.884      162.07613      160.92637      72.616786      233719.12    
    322000   296.49326      0.0322         0.0091222626   11.538975     -35806.201      156.9399       160.80462      72.623822      233564.92    
    323000   301.052        0.0323        -0.011018316    11.570971     -35800.913      159.35293      160.99697      72.630858      233866.96    
    324000   297.00022      0.0324         0.010205776    11.600159     -35802.066      157.20824      160.82166      72.637894      233634.94    
    325000   297.77161      0.0325         0.0079089057   11.629927     -35804.394      157.61656      160.88582      72.644929      233750.77    
    326000   297.47442      0.0326        -0.030029451    11.645949     -35799.009      157.45925      160.70738      72.651965      233514.14    
    327000   297.31473      0.0327        -0.00020921705  11.688294     -35800.293      157.37472      160.85586      72.659001      233752.52    
    328000   303.64703      0.0328        -0.0030918007   11.733431     -35799.145      160.72654      160.77445      72.666037      233656.84    
    329000   295.70435      0.0329         0.0026558367   11.771531     -35803.352      156.52231      160.9221       72.673073      233894.07    
    330000   302.36345      0.033         -0.020050944    11.793211     -35798.64       160.04711      160.73016      72.680109      233637.71    
    331000   300.04515      0.0331         0.024598381    11.845509     -35794.775      158.81999      160.89331      72.687145      233897.5     
    332000   298.26225      0.0332        -0.050049308    11.855322     -35798.425      157.87626      160.62368      72.694181      233528.14    
    333000   296.7562       0.0333         0.014372894    11.933454     -35794.013      157.07908      160.8576       72.701217      233890.87    
    334000   299.981        0.0334        -0.017243565    11.945341     -35795.268      158.78603      160.68865      72.708253      233667.82    
    335000   296.46987      0.0335         0.011038525    11.983985     -35794.977      156.92752      160.86466      72.715288      233946.41    
    336000   303.17857      0.0336        -0.003113776    12.022061     -35800.28       160.47857      160.73576      72.722324      233781.55    
    337000   300.107        0.0337         0.017526404    12.070008     -35798.089      158.85272      160.83273      72.72936       233945.24    
    338000   296.93449      0.0338        -0.047065701    12.088821     -35795.184      157.17345      160.64157      72.736396      233689.77    
    339000   300.37905      0.0339         0.0205929      12.12491      -35794.234      158.99673      160.81514      72.743432      233964.91    
    340000   301.77387      0.034         -0.039550692    12.145078     -35797.379      159.73504      160.71345      72.750468      233839.57    
    341000   293.33562      0.0341         0.10645149     12.23096      -35793.772      155.26849      160.87507      72.757504      234097.37    
    342000   303.17556      0.0342        -0.0099759222   12.225743     -35790.129      160.47698      160.76164      72.76454       233954.93    
    343000   304.90187      0.0343         0.011738004    12.272758     -35790.76       161.39075      160.67091      72.771576      233845.51    
    344000   296.11116      0.0344         0.0047054549   12.308451     -35791.494      156.73765      160.81883      72.778612      234083.42    
    345000   291.8232       0.0345        -0.002610855    12.339649     -35790.289      154.46794      160.72394      72.785647      233967.92    
    346000   302.03671      0.0346        -0.0046125622   12.378095     -35791.28       159.87416      160.66948      72.792683      233911.25    
    347000   308.32575      0.0347         0.0052872548   12.413722     -35793.861      163.20308      160.81732      72.799719      234149.11    
    348000   298.89958      0.0348        -0.00052157419  12.448271     -35788.114      158.21362      160.65895      72.806755      233941.14    
    349000   302.05398      0.0349        -0.016147882    12.466016     -35787.556      159.8833       160.84964      72.813791      234241.44    
    350000   292.73251      0.035         -0.0058905606   12.516349     -35786.062      154.94926      160.66586      72.820827      233996.41    
    351000   298.41349      0.0351        -0.021198881    12.527168     -35784.887      157.95632      160.76121      72.827863      234157.9     
    352000   298.85897      0.0352         0.020917192    12.580149     -35784.892      158.19212      160.66025      72.834899      234033.46    
    353000   293.07493      0.0353        -0.0037196934   12.632892     -35786.429      155.13051      160.72368      72.841935      234148.48    
    354000   297.98309      0.0354        -0.025256527    12.642909     -35784          157.7285       160.56953      72.84897       233946.5     
    355000   297.53129      0.0355         0.022882377    12.697262     -35782.171      157.48935      160.7653       72.856006      234254.36    
    356000   295.01678      0.0356        -0.04126595     12.714472     -35781.237      156.15837      160.64795      72.863042      234105.96    
    357000   295.31789      0.0357         0.070296814    12.783648     -35779.871      156.31775      160.73726      72.870078      234258.73    
    358000   298.38088      0.0358        -0.031160203    12.77441      -35778.164      157.93905      160.66678      72.877114      234178.63    
    359000   307.27317      0.0359         0.030537621    12.831295     -35782.953      162.64593      160.66885      72.88415       234204.25    
    360000   308.10775      0.036         -0.050783944    12.850825     -35782.802      163.08769      160.70219      72.891186      234275.46    
    361000   304.47672      0.0361         0.01939045     12.890056     -35781.231      161.1657       160.62952      72.898222      234192.13    
    362000   302.99016      0.0362        -0.0074992041   12.935586     -35783.553      160.37884      160.69828      72.905258      234314.98    
    363000   299.98649      0.0363         0.0081066586   12.979085     -35780.705      158.78894      160.59177      72.912294      234182.28    
    364000   301.14755      0.0364         0.022957852    13.02151      -35779.245      159.40351      160.83352      72.919329      234557.44    
    365000   303.36932      0.0365        -0.011696766    13.03862      -35774.994      160.57954      160.55095      72.926365      234167.95    
    366000   298.38038      0.0366         0.023166144    13.089594     -35780.54       157.93879      160.66429      72.933401      234355.86    
    367000   300.82566      0.0367        -0.051050853    13.100937     -35776.108      159.23313      160.51242      72.940437      234156.93    
    368000   301.29382      0.0368         0.043418309    13.141073     -35776.961      159.48093      160.69973      72.947473      234452.78    
    369000   297.83993      0.0369        -0.013044579    13.171482     -35775.996      157.65272      160.5665       72.954509      234281       
    370000   299.38992      0.037          0.034613651    13.222905     -35774.246      158.47316      160.73175      72.961545      234544.74    
    371000   296.05045      0.0371        -0.013261938    13.224585     -35771.627      156.70551      160.5439       72.968581      234293.22    
    372000   293.97482      0.0372         0.008447548    13.290718     -35775.238      155.60684      160.63743      72.975617      234452.31    
    373000   296.61065      0.0373         0.01019787     13.321035     -35770.878      157.00203      160.55558      72.982653      234355.44    
    374000   299.01248      0.0374        -0.0054219693   13.351475     -35771.981      158.27337      160.60521      72.989688      234450.49    
    375000   302.83654      0.0375         0.047609222    13.407382     -35771.556      160.29753      160.55565      72.996724      234400.74    
    376000   307.26558      0.0376        -0.024398087    13.434279     -35772.663      162.64191      160.5866       73.00376       234468.52    
    377000   297.97178      0.0377        -0.0045772597   13.478004     -35770.615      157.72251      160.57187      73.010796      234469.6     
    378000   295.87967      0.0378        -0.00038089831  13.515478     -35770.234      156.61511      160.57209      73.017832      234492.52    
    379000   300.94668      0.0379         0.0062918861   13.538193     -35771.544      159.29719      160.58482      73.024868      234533.71    
    380000   306.77706      0.038         -0.018201436    13.565501     -35770.851      162.38332      160.527        73.031904      234471.84    
    381000   293.73049      0.0381         0.05098968     13.621135     -35763.202      155.47751      160.6442       73.03894       234665.65    
    382000   297.23158      0.0382        -0.042388901    13.611764     -35767.216      157.33071      160.50325      73.045976      234482.34    
    383000   303.73784      0.0383         0.025154686    13.67335      -35769.724      160.7746       160.59472      73.053012      234638.56    
    384000   298.82419      0.0384        -0.040674943    13.695741     -35764.842      158.17371      160.41993      73.060047      234405.75    
    385000   305.08142      0.0385         0.016674252    13.747983     -35767.622      161.48579      160.60039      73.067083      234692.04    
    386000   300.27083      0.0386        -0.022387968    13.768028     -35763.017      158.93944      160.4874       73.074119      234549.51    
    387000   301.72047      0.0387         0.062934809    13.832921     -35760.418      159.70677      160.68978      73.081155      234867.9     
    388000   297.61443      0.0388        -0.020675099    13.832486     -35756.208      157.53336      160.51363      73.088191      234633.01    
    389000   304.44702      0.0389         0.019359695    13.877939     -35767.38       161.14998      160.51827      73.095227      234662.38    
    390000   293.81657      0.039         -0.058698567    13.904643     -35762.893      155.52307      160.48662      73.102263      234638.7     
    391000   304.54519      0.0391         0.018973062    13.972193     -35760.153      161.20195      160.48609      73.109299      234660.51    
    392000   312.15509      0.0392        -0.0057798931   13.976982     -35763.584      165.23003      160.51703      73.116335      234728.34    
    393000   305.49023      0.0393         0.017614408    14.009215     -35760.876      161.70218      160.48356      73.12337       234701.97    
    394000   300.01767      0.0394        -0.015144682    14.047586     -35758.953      158.80544      160.56945      73.130406      234850.18    
    395000   304.18356      0.0395         0.014593731    14.082715     -35758.054      161.01053      160.43162      73.137442      234671.17    
    396000   298.41766      0.0396         0.0031854907   14.127704     -35758.513      157.95852      160.52044      73.144478      234823.67    
    397000   303.15971      0.0397        -0.0067437981   14.169053     -35757.813      160.46859      160.36661      73.151514      234621.2     
    398000   296.79838      0.0398         0.0074267121   14.217489     -35760.415      157.1014       160.52681      73.15855       234878.17    
    399000   298.00505      0.0399        -0.00057058341  14.233386     -35759.228      157.74012      160.41935      73.165586      234743.51    
    400000   305.36576      0.04          -0.02443754     14.248565     -35755.15       161.63629      160.53753      73.172622      234939.03    
    401000   299.42092      0.0401         0.030519379    14.317067     -35753.742      158.48957      160.45269      73.179658      234837.46    
    402000   300.16251      0.0402        -0.016051319    14.332814     -35753.486      158.88211      160.44135      73.186694      234843.44    
    403000   299.52209      0.0403         0.01513875     14.367644     -35751.009      158.54312      160.47687      73.193729      234918.01    
    404000   303.85007      0.0404        -0.01536805     14.400685     -35751.44       160.83401      160.38259      73.200765      234802.56    
    405000   303.55851      0.0405         0.02062498     14.444918     -35749.818      160.67968      160.55586      73.207801      235078.83    
    406000   293.1786       0.0406        -0.014885269    14.479276     -35751.463      155.18538      160.38241      73.214837      234847.43    
    407000   304.72031      0.0407         0.032544728    14.522336     -35751.022      161.29464      160.50285      73.221873      235046.39    
    408000   305.83936      0.0408        -0.059105276    14.52024      -35747.084      161.88698      160.29971      73.228909      234771.45    
    409000   308.71756      0.0409         0.022894417    14.58675      -35749.064      163.41047      160.49061      73.235945      235073.63    
    410000   302.07946      0.041         -0.009020889    14.627682     -35754.752      159.89679      160.38325      73.242981      234938.95    
    411000   305.40136      0.0411         0.022784436    14.652653     -35744.847      161.65514      160.44406      73.250017      235050.6     
    412000   306.55781      0.0412        -0.020666652    14.674707     -35748.32       162.26727      160.34579      73.257053      234929.2     
    413000   301.3462       0.0413         0.016835137    14.726341     -35746.17       159.50866      160.47865      73.264088      235146.43    
    414000   299.76967      0.0414        -0.019683022    14.757931     -35744.908      158.67417      160.20926      73.271124      234774.25    
    415000   296.3817       0.0415        -0.0012355844   14.788838     -35740.895      156.88085      160.45272      73.27816       235153.61    
    416000   295.43866      0.0416         0.0063699009   14.827164     -35745.363      156.38168      160.33763      73.285196      235007.5     
    417000   293.23976      0.0417        -0.049208993    14.861687     -35743.087      155.21775      160.42969      73.292232      235165       
    418000   302.82191      0.0418         0.030042818    14.90707      -35739.726      160.28978      160.37423      73.299268      235106.27    
    419000   299.09425      0.0419        -0.039339216    14.914407     -35739.606      158.31665      160.34853      73.306304      235091.16    
    420000   304.22545      0.042          0.061631815    14.974478     -35741.25       161.03271      160.41968      73.31334       235218.05    
    421000   306.48248      0.0421        -0.026245379    14.995815     -35744.236      162.22739      160.3236       73.320376      235099.73    
    422000   298.15389      0.0422         0.0054112223   15.036404     -35740.085      157.8189       160.41222      73.327411      235252.26    
    423000   297.00353      0.0423         0.0039564991   15.057081     -35736.895      157.20999      160.32279      73.334447      235143.67    
    424000   298.18161      0.0424        -0.027815954    15.080136     -35736.96       157.83358      160.38536      73.341483      235258       
    425000   296.98548      0.0425         0.052660663    15.134959     -35735.027      157.20044      160.31981      73.348519      235184.42    
    426000   304.88287      0.0426        -0.023810204    15.142371     -35735.624      161.38069      160.35814      73.355555      235263.21    
    427000   291.52981      0.0427         0.021708064    15.222892     -35736.015      154.31264      160.29753      73.362591      235196.84    
    428000   304.72824      0.0428        -0.02612862     15.234775     -35737.476      161.29884      160.34817      73.369627      235293.7     
    429000   299.28924      0.0429         0.019201627    15.274089     -35734.081      158.41987      160.3364       73.376663      235299       
    430000   303.54751      0.043         -0.077184882    15.266956     -35733.122      160.67386      160.21852      73.383699      235148.55    
    431000   306.47739      0.0431         0.031387974    15.331292     -35734.201      162.2247       160.36004      73.390735      235378.82    
    432000   303.33436      0.0432        -0.027960415    15.364568     -35733.222      160.56104      160.26152      73.39777       235256.77    
    433000   288.60198      0.0433         0.019510625    15.426561     -35731.052      152.76289      160.36266      73.404806      235427.8     
    434000   290.8357       0.0434        -0.01542313     15.449463     -35732.402      153.94524      160.22817      73.411842      235252.9     
    435000   300.71877      0.0435         0.002209239    15.49928      -35733.395      159.17655      160.3878       73.418878      235509.85    
    436000   299.77501      0.0436        -0.0021454754   15.52774      -35731.283      158.677        160.17859      73.425914      235225.19    
    437000   304.1233       0.0437         0.0028539598   15.539551     -35730.044      160.97863      160.3358       73.43295       235478.62    
    438000   304.17512      0.0438         0.019927669    15.574244     -35730.557      161.00606      160.23299      73.439986      235350.17    
    439000   295.52409      0.0439        -0.003103524    15.588599     -35725.173      156.4269       160.3745       73.447022      235580.59    
    440000   302.86416      0.044          0.012904681    15.641865     -35730.847      160.31214      160.23164      73.454058      235393.29    
[...]
   2875000   303.20371      0.2875         0.035802192    0.52211146    -35825.011      160.49188      162.12886      90.586466      293733.61    
   2876000   299.12776      0.2876         0.014383464    0.28542166    -35826.92       158.33439      162.25601      90.593502      293986.81    
   2877000   299.9353       0.2877        -0.015883285    0.44555134    -35828.606      158.76184      162.11409      90.600538      293752.47    
   2878000   298.27504      0.2878        -0.0018818408   0.39965865    -35825.602      157.88303      162.08039      90.607574      293714.22    
   2879000   306.702        0.2879         0.020695986    0.51711381    -35830.351      162.34359      162.22134      90.61461       293992.46    
   2880000   309.14663      0.288         -0.0069503248   0.27283683    -35828.859      163.63758      162.25547      90.621645      294077.16    
   2881000   299.18819      0.2881         0.024326603    0.35978531    -35823.749      158.36638      162.24786      90.628681      294086.19    
   2882000   299.5906       0.2882        -0.018118718    0.46563172    -35822.763      158.57938      162.23505      90.635717      294085.8     
   2883000   302.12934      0.2883        -0.019611854    0.39742746    -35827.745      159.92319      162.24601      90.642753      294128.5     
   2884000   298.83113      0.2884         0.0086082058   0.23999604    -35823.857      158.17738      162.3294       90.649789      294302.52    
   2885000   301.93144      0.2885        -0.02893648     0.27496171    -35826.469      159.81844      162.1644       90.656825      294026.19    
   2886000   308.26424      0.2886         0.052883525    0.36893175    -35823.176      163.17052      162.2623       90.663861      294226.54    
   2887000   294.72728      0.2887         0.048981922    0.44260656    -35823.853      156.00513      162.31275      90.670897      294340.85    
   2888000   297.70343      0.2888        -0.0099728671   0.29241138    -35825.912      157.58047      162.29499      90.677933      294331.49    
   2889000   305.95378      0.2889        -0.0055413798   0.44730535    -35826.11       161.94754      162.14748      90.684969      294086.79    
   2890000   302.18294      0.289          0.032313649    0.52375839    -35827.448      159.95156      162.22331      90.692004      294247.14    
   2891000   298.61406      0.2891         0.026668726    0.35515526    -35824.026      158.06248      162.23264      90.69904       294286.89    
   2892000   297.30412      0.2892        -0.0097698071   0.2306508     -35820.242      157.3691       162.28131      90.706076      294398.01    
   2893000   299.61668      0.2893        -0.0089347182   0.4742342     -35831.225      158.59319      162.33748      90.713112      294522.76    
   2894000   306.36402      0.2894         0.028407815    0.26902946    -35828.243      162.16469      162.30367      90.720148      294484.27    
   2895000   303.96324      0.2895         0.013248292    0.39776674    -35828.886      160.89391      162.25391      90.727184      294416.81    
   2896000   301.44167      0.2896         0.065895154    0.31064509    -35830.151      159.55919      162.30856      90.73422       294538.82    
   2897000   299.30581      0.2897         0.029314768    0.43449518    -35828.023      158.42864      162.2437       90.741256      294443.95    
   2898000   295.41042      0.2898        -0.016574302    0.4643606     -35824.639      156.36673      162.26741      90.748292      294509.81    
   2899000   304.38726      0.2899        -0.018524899    0.41148456    -35824.441      161.11835      162.2738       90.755328      294544.24    
   2900000   296.22539      0.29           0.018648894    0.44530095    -35822.121      156.79811      162.21674      90.762363      294463.49    
   2901000   303.80125      0.2901         0.015809641    0.39675387    -35825.549      160.80817      162.26012      90.769399      294565.07    
   2902000   300.80607      0.2902        -0.0075610806   0.30242012    -35821.438      159.22276      162.27749      90.776435      294619.45    
   2903000   302.16765      0.2903         0.039241645    0.46372537    -35828.4        159.94347      162.35205      90.783471      294777.65    
   2904000   300.68891      0.2904         0.0087167327   0.035004602   -35823.857      159.16074      162.36691      90.790507      294827.48    
   2905000   300.20756      0.2905         0.027061042    0.4027046     -35826.796      158.90595      162.23886      90.797543      294617.8     
   2906000   295.33441      0.2906         0.031685571    0.28865864    -35824.124      156.3265       162.26484      90.804579      294687.8     
   2907000   298.90357      0.2907         0.0031021233   0.34272832    -35826.102      158.21573      162.30245      90.811615      294778.94    
   2908000   302.47831      0.2908        -0.0037090335   0.57585603    -35827.08       160.10791      162.13526      90.818651      294498.1     
   2909000   296.93307      0.2909         0.0050566305   0.59537895    -35826.151      157.1727       162.09107      90.825686      294440.65    
   2910000   296.7951       0.291         -0.00075417143  0.4770609     -35823.191      157.09967      162.04592      90.832722      294381.44    
   2911000   301.92265      0.2911         0.015963479    0.45172662    -35826.409      159.81379      162.27381      90.839758      294818.28    
   2912000   300.73224      0.2912         0.024491044    0.42356366    -35825.208      159.18368      162.34968      90.846794      294978.96    
   2913000   303.47623      0.2913        -0.012350028    0.3309797     -35827.604      160.63613      162.24997      90.85383       294820.62    
   2914000   298.03889      0.2914         0.019118932    0.22238055    -35824.037      157.75803      162.31464      90.860866      294960.98    
   2915000   299.44285      0.2915        -0.043636758    0.3184173     -35826.865      158.50118      162.09824      90.867902      294590.54    
   2916000   311.15541      0.2916        -0.019279009    0.43365727    -35828.523      164.70087      162.15677      90.874938      294719.72    
   2917000   297.06303      0.2917         0.041801934    0.57136327    -35821.694      157.24149      162.24243      90.881974      294898.25    
   2918000   303.23872      0.2918         0.012948013    0.58564566    -35826.346      160.51041      162.11518      90.88901       294689.76    
   2919000   296.70907      0.2919        -0.011979494    0.43399774    -35826.245      157.05413      162.19526      90.896045      294858.16    
   2920000   295.96672      0.292         -0.012706399    0.45717516    -35824.934      156.66119      162.27913      90.903081      295033.46    
   2921000   299.58579      0.2921        -0.001328662    0.47714903    -35823.645      158.57684      162.12978      90.910117      294784.74    
   2922000   309.72588      0.2922         0.026330831    0.24866434    -35824.738      163.9442       162.30733      90.917153      295130.4     
   2923000   301.26635      0.2923        -0.046802727    0.13606044    -35826.345      159.46639      162.20012      90.924189      294958.3     
   2924000   298.57783      0.2924         0.013375976    0.2355025     -35826.144      158.0433       162.18732      90.931225      294957.83    
   2925000   295.41134      0.2925         0.019427286    0.54102543    -35823.396      156.36722      162.38455      90.938261      295339.38    
   2926000   296.97308      0.2926        -0.014942553    0.42163684    -35826.011      157.19388      162.14548      90.945297      294927.37    
   2927000   301.02254      0.2927        -0.033438875    0.50724997    -35829.475      159.33734      162.19571      90.952333      295041.56    
   2928000   308.34         0.2928        -0.03710831     0.4192823     -35829.097      163.21062      162.1721       90.959369      295021.44    
   2929000   294.24353      0.2929         0.012737655    0.41339081    -35820.05       155.74907      162.29115      90.966404      295260.85    
   2930000   300.03007      0.293          0.0038297912   0.38813106    -35823.87       158.81201      162.3472       90.97344       295385.67    
   2931000   293.29711      0.2931        -0.04626039     0.45560064    -35823.667      155.24811      162.28754      90.980476      295299.95    
   2932000   301.04761      0.2932         0.029121489    0.33958231    -35830.082      159.35061      162.16527      90.987512      295100.29    
   2933000   301.85478      0.2933        -0.032159802    0.29296554    -35822.832      159.77786      162.25527      90.994548      295286.89    
   2934000   296.78934      0.2934        -0.0005767519   0.4360535     -35822.854      157.09662      162.19128      91.001584      295193.26    
   2935000   303.02885      0.2935        -0.054876027    0.52522926    -35824.359      160.39932      162.00026      91.00862       294868.4     
   2936000   301.82367      0.2936         0.068714329    0.34153924    -35823.513      159.76139      162.25872      91.015656      295361.68    
   2937000   291.16594      0.2937        -0.0042126048   0.26105824    -35827.54       154.12004      162.1369       91.022692      295162.74    
   2938000   297.47657      0.2938         0.056662783    0.41669089    -35831.471      157.46039      162.26006      91.029727      295409.78    
   2939000   307.82779      0.2939        -0.040341146    0.30497881    -35825.015      162.9395       162.20884      91.036763      295339.36    
   2940000   295.53509      0.294          0.034512039    0.2551217     -35823.312      156.43272      162.27549      91.043799      295483.55    
   2941000   305.07311      0.2941         0.014128098    0.28314042    -35824.526      161.48139      162.21782      91.050835      295401.36    
   2942000   298.51871      0.2942         0.0088280572   0.55203838    -35824.35       158.01201      162.24733      91.057871      295477.92    
   2943000   295.97044      0.2943        -0.017959562    0.33440624    -35822.57       156.66316      162.09681      91.064907      295226.61    
   2944000   300.93026      0.2944         0.030586903    0.39662292    -35829.027      159.28849      162.18256      91.071943      295405.61    
   2945000   300.00611      0.2945        -0.026392229    0.66561249    -35824.605      158.79932      162.14154      91.078979      295353.72    
   2946000   297.58071      0.2946        -0.048111033    0.30259222    -35823.409      157.51551      162.21809      91.086015      295515.99    
   2947000   297.9481       0.2947        -0.0092731167   0.53448044    -35825.186      157.70997      162.23401      91.093051      295567.81    
   2948000   296.58642      0.2948         0.046764183    0.20911657    -35826.396      156.98921      162.38289      91.100086      295861.9     
   2949000   292.65558      0.2949         0.0096529046   0.33350555    -35825.78       154.90854      162.24455      91.107122      295632.69    
   2950000   300.52599      0.295          0.015651843    0.29306121    -35829.326      159.0745       162.22714      91.114158      295623.79    
   2951000   304.49299      0.2951        -0.019860028    0.4330242     -35829.855      161.17432      162.13832      91.121194      295484.76    
   2952000   293.61244      0.2952        -0.043787517    0.38731835    -35827.287      155.41502      162.214        91.12823       295645.49    
   2953000   299.40409      0.2953         0.015012508    0.60244443    -35822.158      158.48066      162.14443      91.135266      295541.51    
   2954000   300.12073      0.2954         0.015740217    0.28961438    -35824.198      158.85999      162.29658      91.142302      295841.69    
   2955000   296.888        0.2955         0.030537291    0.33230541    -35827.151      157.14884      162.2001       91.149338      295688.64    
   2956000   295.71199      0.2956        -0.029871955    0.27643624    -35826.041      156.52636      162.16306      91.156374      295643.93    
   2957000   306.16312      0.2957         0.0031319252   0.53933293    -35826.918      162.05835      162.08455      91.16341       295523.61    
   2958000   304.99037      0.2958        -0.041285413    0.40545326    -35827.115      161.43759      162.27593      91.170445      295895.38    
   2959000   295.66486      0.2959        -0.0038589735   0.41616776    -35825.823      156.50141      162.19846      91.177481      295776.94    
   2960000   295.05996      0.296          0.047596126    0.29637748    -35823.961      156.18123      162.25719      91.184517      295906.87    
   2961000   297.38315      0.2961        -0.0039806427   0.54128419    -35822.568      157.41093      162.12621      91.191553      295690.82    
   2962000   302.44397      0.2962        -0.00024493813  0.48672134    -35825.269      160.08973      162.16914      91.198589      295791.93    
   2963000   291.7339       0.2963        -0.0063200858   0.29079557    -35826.132      154.42067      162.13192      91.205625      295746.86    
   2964000   297.9131       0.2964         0.011241381    0.48996196    -35826.526      157.69145      162.17878      91.212661      295855.15    
   2965000   307.80566      0.2965         0.015517467    0.51329089    -35828.079      162.92778      162.24815      91.219697      296004.54    
   2966000   302.72421      0.2966        -0.055658458    0.31011083    -35827.908      160.23807      162.15012      91.226733      295848.52    
   2967000   301.64742      0.2967        -0.032592216    0.28521227    -35830.606      159.6681       162.10993      91.233768      295797.99    
   2968000   308.17371      0.2968        -0.0034064368   0.45256219    -35824.492      163.1226       162.14229      91.240804      295879.86    
   2969000   304.52084      0.2969        -0.020689976    0.32982867    -35823.647      161.18906      162.19681      91.24784       296002.17    
   2970000   304.09682      0.297          0.012042857    0.21632609    -35824.56       160.96462      162.2913       91.254876      296197.45    
   2971000   297.34927      0.2971        -0.011355866    0.31177691    -35821.749      157.393        162.0862       91.261912      295845.93    
   2972000   312.11852      0.2972         0.011962952    0.47944615    -35824.598      165.21067      162.12367      91.268948      295937.14    
   2973000   307.66091      0.2973        -0.060508274    0.41950622    -35827.274      162.85116      162.03273      91.275984      295793.94    
   2974000   302.48952      0.2974         0.001068465    0.41891527    -35827.855      160.11384      162.20071      91.28302       296123.41    
   2975000   295.32316      0.2975         0.058403119    0.4470486     -35826.749      156.32054      162.24034      91.290056      296218.6     
   2976000   291.73539      0.2976        -0.0096268546   0.39988269    -35825.727      154.42146      162.15893      91.297092      296092.77    
   2977000   302.367        0.2977         0.0071555545   0.51507974    -35825.301      160.04899      162.18761      91.304127      296167.97    
   2978000   301.12711      0.2978         0.020434426    0.3646716     -35827.441      159.39269      162.23644      91.311163      296279.96    
   2979000   296.82629      0.2979        -0.0025645516   0.46106611    -35826.311      157.11618      162.12222      91.318199      296094.19    
   2980000   293.78722      0.298         -0.0090412473   0.38866027    -35827.427      155.50754      162.26489      91.325235      296377.58    
   2981000   297.27782      0.2981        -0.033135373    0.4245455     -35824.337      157.35518      162.04595      91.332271      296000.49    
   2982000   303.30584      0.2982        -0.02813615     0.39363187    -35823.389      160.54594      162.22324      91.339307      296347.17    
   2983000   300.79763      0.2983        -0.059332911    0.24920224    -35829.474      159.21829      162.15657      91.346343      296248.19    
   2984000   300.82966      0.2984         0.013651173    0.1752037     -35826.318      159.23524      162.27596      91.353379      296489.15    
   2985000   303.85751      0.2985        -0.037170851    0.57019997    -35826.497      160.83794      162.08768      91.360415      296167.95    
   2986000   301.50924      0.2986         0.013331837    0.40239562    -35824.595      159.59496      162.14377      91.367451      296293.26    
   2987000   300.67446      0.2987         0.032490068    0.46021502    -35823.329      159.1531       162.21657      91.374486      296449.11    
   2988000   304.1765       0.2988         0.025477157    0.5456674     -35826.836      161.0068       162.2321       91.381522      296500.33    
   2989000   303.95065      0.2989        -0.0066778763   0.64162559    -35825.57       160.88725      162.17866      91.388558      296425.47    
   2990000   292.13967      0.299          0.01004513     0.39943654    -35825.284      154.63546      162.08915      91.395594      296284.69    
   2991000   302.40863      0.2991         0.022985071    0.2883693     -35828.571      160.07102      162.23466      91.40263       296573.49    
   2992000   292.31812      0.2992        -0.012043509    0.39482381    -35824.56       154.72991      162.15406      91.409666      296448.96    
   2993000   303.19474      0.2993         0.0078493931   0.36662343    -35828.022      160.48713      162.22604      91.416702      296603.4     
   2994000   298.74451      0.2994        -0.019691593    0.31034773    -35823.573      158.13153      162.20432      91.423738      296586.5     
   2995000   297.05668      0.2995        -0.042526919    0.39544893    -35822.522      157.23813      162.22719      91.430774      296651.14    
   2996000   296.23552      0.2996         0.033318618    0.35937131    -35825.023      156.80347      162.31657      91.437809      296837.44    
   2997000   299.54874      0.2997        -0.050898157    0.50151615    -35825.411      158.55723      162.08388      91.444845      296434.72    
   2998000   306.6531       0.2998        -0.049544958    0.39758038    -35822.57       162.31771      162.13177      91.451881      296545.1     
   2999000   298.72972      0.2999        -0.034172974    0.58055076    -35824.235      158.1237       162.12993      91.458917      296564.57    
   3000000   306.90274      0.3           -0.024108447    0.42695006    -35828.659      162.44985      162.17417      91.465953      296668.29    
   3000100   295.57649      0.30001        0.009403156    0.44806857    -35823.215      156.45463      162.19726      91.466657      296712.82    
Loop time of 26587.1 on 1 procs for 3000000 steps with 4096 atoms

Performance: 9.749 ns/day, 2.462 hours/ns, 112.837 timesteps/s, 462.179 katom-step/s
126.1% CPU use with 1 MPI tasks x 1 OpenMP threads

MPI task timing breakdown:
Section |  min time  |  avg time  |  max time  |%varavg| %total
---------------------------------------------------------------
Pair    | 24698      | 24698      | 24698      |   0.0 | 92.90
Neigh   | 88.845     | 88.845     | 88.845     |   0.0 |  0.33
Comm    | 29.719     | 29.719     | 29.719     |   0.0 |  0.11
Output  | 3.4527     | 3.4527     | 3.4527     |   0.0 |  0.01
Modify  | 1716.8     | 1716.8     | 1716.8     |   0.0 |  6.46
Other   |            | 49.95      |            |       |  0.19

Nlocal:           4096 ave        4096 max        4096 min
Histogram: 1 0 0 0 0 0 0 0 0 0
Nghost:           1490 ave        1490 max        1490 min
Histogram: 1 0 0 0 0 0 0 0 0 0
Neighs:              0 ave           0 max           0 min
Histogram: 1 0 0 0 0 0 0 0 0 0
FullNghs:       271742 ave      271742 max      271742 min
Histogram: 1 0 0 0 0 0 0 0 0 0

Total # of neighbors = 271742
Ave neighs/atom = 66.343262
Neighbor list builds = 15239
Dangerous builds = 0
Total wall time: 7:29:58
